      19
 i =       0, E =      -77.8149953705
  C         6.9377148731        8.6803561989        7.4744293059
  C         8.1412824783        7.9557857785        7.3751362876
  C         8.1533945470        6.4415018470        7.2747006738
  C         6.8541523868        5.8223643985        7.8144341218
  C         5.6323654741        6.5112108400        7.1887118676
  C         5.5954233233        8.0038563575        7.5533932454
  H         9.0230346630        6.0408997192        7.8167713906
  H         6.8360369519        4.7435875117        7.6034529123
  H         4.7011769019        6.0276167236        7.5156904898
  H         4.8919708550        8.5695424073        6.9246371867
  O         6.9336063492        9.9858775779        7.5449152088
  C         9.3366448755        8.7029111882        7.3897124607
  O         9.3765291877        9.9893835293        7.4645031870
  H        10.3013754584        8.1774894924        7.3461493533
  H         8.1027907692       10.2585988676        7.5167301537
  H         5.2386141190        8.1406969613        8.5882103560
  H         5.6730046369        6.3982030146        6.0962216263
  H         6.8172241215        5.9305382921        8.9077465717
  H         8.2838327835        6.1361933159        6.2243732016
      19
 i =       1, E =      -77.8157027848
  C         6.9402270770        8.6806698673        7.4746956053
  C         8.1407529427        7.9580854068        7.3759048226
  C         8.1530828568        6.4428129698        7.2749092946
  C         6.8542689001        5.8216416228        7.8137436032
  C         5.6324754523        6.5108283580        7.1893638101
  C         5.5954434773        8.0029989118        7.5537426045
  H         9.0235026252        6.0404040022        7.8154363447
  H         6.8363629284        4.7435323552        7.6036596986
  H         4.7013249684        6.0274515762        7.5159443431
  H         4.8910982054        8.5693103954        6.9254751881
  O         6.9608901875        9.9928871531        7.5433083633
  C         9.3341328331        8.7042361017        7.3904299571
  O         9.3599155229        9.9930341365        7.4674309272
  H        10.3016043026        8.1779161386        7.3471994835
  H         8.1015907021       10.2459317509        7.5156903265
  H         5.2392514024        8.1401436205        8.5889043341
  H         5.6730572101        6.3980504171        6.0964074319
  H         6.8177445230        5.9306987948        8.9078465950
  H         8.2827272382        6.1365755710        6.2232834187
      19
 i =       2, E =      -77.8157781206
  C         6.9416951286        8.6840790266        7.4748773389
  C         8.1403883960        7.9556962210        7.3759007443
  C         8.1532001885        6.4429577036        7.2745217292
  C         6.8543898828        5.8220002747        7.8141870960
  C         5.6327473009        6.5107149663        7.1890891603
  C         5.5960037898        8.0048200143        7.5539505238
  H         9.0234612033        6.0404590146        7.8151410223
  H         6.8364539225        4.7432341859        7.6035974412
  H         4.7012658603        6.0274603005        7.5160659874
  H         4.8910053024        8.5691396298        6.9257266933
  O         6.9615442740        9.9901930673        7.5430344471
  C         9.3345173032        8.7071470145        7.3908659428
  O         9.3602697249        9.9912761333        7.4678455536
  H        10.3008312320        8.1790143699        7.3474715519
  H         8.1014104551       10.2435071019        7.5154919618
  H         5.2393612958        8.1400356679        8.5890273836
  H         5.6730404072        6.3980541936        6.0965994033
  H         6.8178303484        5.9306450357        8.9075664975
  H         8.2825053806        6.1369260458        6.2234976466
      19
 i =       3, E =      -77.8158127366
  C         6.9431453149        8.6820270127        7.4748042620
  C         8.1411751970        7.9562319183        7.3760893374
  C         8.1531939024        6.4426129820        7.2744046900
  C         6.8545825674        5.8218763339        7.8140696203
  C         5.6331240213        6.5114125374        7.1893198911
  C         5.5971690426        8.0067559677        7.5541959754
  H         9.0234623646        6.0405002406        7.8146661077
  H         6.8366179617        4.7432030194        7.6036225996
  H         4.7013457555        6.0276404061        7.5162090190
  H         4.8906652806        8.5691662247        6.9259410691
  O         6.9633445148        9.9914124554        7.5430523615
  C         9.3336264377        8.7051070027        7.3912152688
  O         9.3604661009        9.9928565055        7.4687334291
  H        10.2999921693        8.1808109966        7.3479162734
  H         8.1011813055       10.2400961259        7.5152236674
  H         5.2395614715        8.1399921750        8.5892829779
  H         5.6730696529        6.3980280113        6.0966156665
  H         6.8179698955        5.9306598284        8.9075749019
  H         8.2821783171        6.1372592854        6.2234385746
      19
 i =       4, E =      -77.8158353965
  C         6.9432907968        8.6835874272        7.4749522953
  C         8.1411890408        7.9549980560        7.3761084551
  C         8.1532375629        6.4426256426        7.2743794334
  C         6.8546341459        5.8219673171        7.8141129306
  C         5.6331737623        6.5118096536        7.1894091936
  C         5.5975894875        8.0069754957        7.5542852034
  H         9.0235429596        6.0404613676        7.8144394119
  H         6.8366897261        4.7431467766        7.6036114365
  H         4.7015363738        6.0279113712        7.5162743571
  H         4.8906313427        8.5693264217        6.9260710317
  O         6.9640426440        9.9900514572        7.5429853800
  C         9.3339516002        8.7073802114        7.3916098147
  O         9.3606654329        9.9913614108        7.4691770574
  H        10.2999043492        8.1814707991        7.3481506993
  H         8.1011639919       10.2385818355        7.5151230413
  H         5.2397845129        8.1400884575        8.5894096488
  H         5.6730921440        6.3980876105        6.0967288251
  H         6.8180681042        5.9306460349        8.9075300188
  H         8.2820131256        6.1374407774        6.2233210607
      19
 i =       5, E =      -77.8158482429
  C         6.9441350773        8.6820169629        7.4749365869
  C         8.1414243509        7.9555950111        7.3763087925
  C         8.1533367411        6.4423699807        7.2742711256
  C         6.8546903690        5.8219814454        7.8140879362
  C         5.6334592832        6.5123690743        7.1895270946
  C         5.5979450961        8.0076948703        7.5544303720
  H         9.0237121657        6.0403423557        7.8141050740
  H         6.8367796428        4.7431651780        7.6036024842
  H         4.7017850385        6.0283752340        7.5164096580
  H         4.8906488373        8.5695071024        6.9263586514
  O         6.9652618881        9.9906940109        7.5430920709
  C         9.3337883048        8.7057132716        7.3919525628
  O         9.3609118337        9.9926518131        7.4700503463
  H        10.2997641145        8.1826857260        7.3485419873
  H         8.1009792978       10.2363966323        7.5150164935
  H         5.2401518850        8.1402512024        8.5895630986
  H         5.6731336983        6.3982156002        6.0969079458
  H         6.8182239332        5.9306410910        8.9075233353
  H         8.2817625593        6.1376524390        6.2231399881
      19
 i =       6, E =      -77.8158601958
  C         6.9440169003        8.6830650878        7.4750694124
  C         8.1416466314        7.9546634848        7.3763354922
  C         8.1533694378        6.4424028409        7.2742452645
  C         6.8547500892        5.8220435089        7.8140942068
  C         5.6335094977        6.5126070571        7.1896155996
  C         5.5982213373        8.0077726619        7.5545022828
  H         9.0238333684        6.0402558792        7.8139261663
  H         6.8368036984        4.7431789369        7.6035867167
  H         4.7019550138        6.0286881968        7.5164878955
  H         4.8907072111        8.5697035972        6.9264920583
  O         6.9656555021        9.9896559810        7.5430789733
  C         9.3339645055        8.7075451614        7.3923166516
  O         9.3611727966        9.9914253130        7.4705040374
  H        10.3000074983        8.1830828456        7.3487525632
  H         8.1009821237       10.2354262101        7.5150025949
  H         5.2403947415        8.1403936545        8.5896784567
  H         5.6731666453        6.3983297069        6.0970016435
  H         6.8183185160        5.9306329644        8.9075156543
  H         8.2816341301        6.1377792755        6.2230113064
      19
 i =       7, E =      -77.8158659448
  C         6.9441601737        8.6828073143        7.4751179146
  C         8.1417644601        7.9546044440        7.3764272227
  C         8.1534785071        6.4423474502        7.2741940985
  C         6.8548114267        5.8220879082        7.8140928441
  C         5.6336242351        6.5127530244        7.1896851572
  C         5.5983218206        8.0078676397        7.5545766118
  H         9.0239624225        6.0401273513        7.8137602264
  H         6.8367945877        4.7432392614        7.6035625959
  H         4.7020628142        6.0290075764        7.5165945485
  H         4.8908261909        8.5699018243        6.9266440035
  O         6.9658776524        9.9894890976        7.5431365186
  C         9.3341757496        8.7075001970        7.3925758420
  O         9.3614061074        9.9914867977        7.4710369595
  H        10.3002970104        8.1834374571        7.3489656883
  H         8.1009519069       10.2348445216        7.5150675407
  H         5.2406443711        8.1405609979        8.5897834970
  H         5.6732069801        6.3984842120        6.0970776106
  H         6.8184133674        5.9306303236        8.9075266288
  H         8.2815302880        6.1378566188        6.2228927983
      19
 i =       8, E =      -77.8158715730
  C         6.9444556578        8.6822594947        7.4751241285
  C         8.1418632004        7.9548228988        7.3765149267
  C         8.1535499406        6.4422552175        7.2741431539
  C         6.8548516158        5.8221097513        7.8140982771
  C         5.6337305072        6.5129283841        7.1897267615
  C         5.5984144606        8.0080485134        7.5546392776
  H         9.0240507314        6.0400421619        7.8136227695
  H         6.8368059184        4.7432644268        7.6035479692
  H         4.7021372326        6.0292157291        7.5166727249
  H         4.8908859720        8.5700150384        6.9267677732
  O         6.9662059211        9.9896567825        7.5431796344
  C         9.3342313685        8.7068885322        7.3927406515
  O         9.3615373542        9.9919435725        7.4714524110
  H        10.3003779925        8.1838236382        7.3491363391
  H         8.1009193411       10.2342320166        7.5150916039
  H         5.2408188058        8.1406608103        8.5898591316
  H         5.6732322783        6.3985764814        6.0971446950
  H         6.8184864176        5.9306289854        8.9075263080
  H         8.2814422094        6.1379245306        6.2228123832
      19
 i =       9, E =      -77.8158890153
  C         6.9460650929        8.6819106291        7.4757304397
  C         8.1439802919        7.9529696884        7.3773500967
  C         8.1543117807        6.4417075104        7.2736336125
  C         6.8554943269        5.8225111075        7.8141297166
  C         5.6346841423        6.5150157652        7.1904494500
  C         5.6001959366        8.0095244708        7.5554546257
  H         9.0253256621        6.0388368827        7.8117860687
  H         6.8368788456        4.7436261471        7.6033316209
  H         4.7032470433        6.0321094279        7.5177068548
  H         4.8918296211        8.5718294856        6.9283252973
  O         6.9697196573        9.9870448972        7.5433542486
  C         9.3355210310        8.7093756326        7.3956487381
  O         9.3637108111        9.9906039540        7.4769227991
  H        10.3026655692        8.1879357289        7.3514081002
  H         8.1010879842       10.2268590658        7.5155979195
  H         5.2432616744        8.1421233608        8.5909966260
  H         5.6736029512        6.3999291035        6.0979808996
  H         6.8195021691        5.9306076748        8.9075608874
  H         8.2803074082        6.1388702257        6.2216313533
      19
 i =      10, E =      -77.8159072775
  C         6.9465631816        8.6805696076        7.4756594858
  C         8.1437885916        7.9538265424        7.3774796975
  C         8.1544992992        6.4415868326        7.2735771117
  C         6.8555083271        5.8225347617        7.8141321006
  C         5.6347869343        6.5149833747        7.1904713298
  C         5.6000860127        8.0096005135        7.5555165192
  H         9.0253913363        6.0386975971        7.8116764626
  H         6.8368421622        4.7436848118        7.6033047998
  H         4.7032064294        6.0322196683        7.5177986999
  H         4.8919751182        8.5719162488        6.9284431143
  O         6.9696178570        9.9879104703        7.5434257129
  C         9.3358837918        8.7072980042        7.3956985884
  O         9.3637461211        9.9920723103        7.4773063806
  H        10.3027781778        8.1880768576        7.3515541444
  H         8.1012544820       10.2271165669        7.5157720039
  H         5.2434029335        8.1422129052        8.5910494129
  H         5.6736261214        6.4000510280        6.0980049605
  H         6.8195705383        5.9306148745        8.9075801983
  H         8.2802847160        6.1388540553        6.2215849952
      19
 i =      11, E =      -77.8159045243
  C         6.9463342270        8.6814313468        7.4758961978
  C         8.1449301177        7.9532847251        7.3777468341
  C         8.1548642906        6.4416182320        7.2734184616
  C         6.8557816550        5.8226661109        7.8141567489
  C         5.6348291839        6.5148690256        7.1906861129
  C         5.6003608473        8.0091901771        7.5558065716
  H         9.0258652916        6.0379769777        7.8111656736
  H         6.8366264265        4.7439524418        7.6031658594
  H         4.7031201976        6.0328005669        7.5182363387
  H         4.8927528360        8.5726153299        6.9289063758
  O         6.9689119859        9.9870662192        7.5434773320
  C         9.3368129056        8.7086479716        7.3967560027
  O         9.3644483247        9.9912930945        7.4790200736
  H        10.3047197969        8.1877911291        7.3522819622
  H         8.1024865805       10.2285724123        7.5167458589
  H         5.2441910411        8.1427420537        8.5914610811
  H         5.6737548694        6.4007098755        6.0981152737
  H         6.8199496236        5.9306434994        8.9076606888
  H         8.2802054237        6.1388713852        6.2212757027
      19
 i =      12, E =      -77.8159132053
  C         6.9468967754        8.6805015139        7.4758605115
  C         8.1447615966        7.9539289033        7.3778644311
  C         8.1549997532        6.4415164575        7.2733848677
  C         6.8558027741        5.8226879204        7.8141711010
  C         5.6348980762        6.5149415866        7.1907109040
  C         5.6003686404        8.0093375966        7.5558631375
  H         9.0259034867        6.0378609431        7.8110568258
  H         6.8366145291        4.7439646131        7.6031429328
  H         4.7030866623        6.0328462439        7.5183052494
  H         4.8928630609        8.5726670242        6.9290077212
  O         6.9690773772        9.9877263839        7.5435212899
  C         9.3371342457        8.7072016154        7.3968280525
  O         9.3644211397        9.9923556571        7.4793592740
  H        10.3046658650        8.1880311036        7.3524402129
  H         8.1026784436       10.2286226868        7.5169089039
  H         5.2443036035        8.1427926336        8.5915167201
  H         5.6737630773        6.4007891829        6.0981482457
  H         6.8200145644        5.9306485746        8.9076603705
  H         8.2801925408        6.1388724336        6.2212475009
      19
 i =      13, E =      -77.8159090623
  C         6.9472231832        8.6815406576        7.4761302956
  C         8.1458651877        7.9534153108        7.3781279145
  C         8.1551937825        6.4415541711        7.2733122953
  C         6.8560058400        5.8227671206        7.8141794562
  C         5.6348960725        6.5152270929        7.1909303064
  C         5.6010254738        8.0094899827        7.5561423373
  H         9.0262072138        6.0372981936        7.8105976751
  H         6.8365321896        4.7440489553        7.6030414832
  H         4.7030722420        6.0331345179        7.5185941620
  H         4.8934407981        8.5731200626        6.9293903479
  O         6.9696429518        9.9871953174        7.5435130619
  C         9.3376166825        8.7086897231        7.3977511837
  O         9.3648622058        9.9917366911        7.4807946113
  H        10.3056054875        8.1883689432        7.3531757502
  H         8.1038594768       10.2289959755        7.5177477597
  H         5.2449150796        8.1430985825        8.5918582937
  H         5.6738081666        6.4012060330        6.0983035767
  H         6.8203443059        5.9306688301        8.9076845638
  H         8.2801576518        6.1389528645        6.2210601690
      19
 i =      14, E =      -77.8159160401
  C         6.9476366479        8.6808171828        7.4761059650
  C         8.1457021823        7.9538999677        7.3782260560
  C         8.1553157060        6.4414834873        7.2732867559
  C         6.8560001401        5.8227906701        7.8141781897
  C         5.6349739873        6.5152634455        7.1909562675
  C         5.6010236743        8.0096192709        7.5561934834
  H         9.0262320497        6.0372086575        7.8105235420
  H         6.8365268962        4.7440697640        7.6030250005
  H         4.7030755823        6.0331950773        7.5186374322
  H         4.8935430768        8.5731675507        6.9294706176
  O         6.9697366137        9.9877104438        7.5435678943
  C         9.3378587492        8.7076006657        7.3978119660
  O         9.3649026391        9.9925973977        7.4810504537
  H        10.3055871317        8.1885633653        7.3533044477
  H         8.1040325051       10.2290160811        7.5178756826
  H         5.2450143738        8.1431432796        8.5918913612
  H         5.6738082818        6.4012699046        6.0983414411
  H         6.8203927144        5.9306697469        8.9076872896
  H         8.2801514254        6.1389620914        6.2210465818
      19
 i =      15, E =      -77.8159142160
  C         6.9521903335        8.6831832390        7.4782054768
  C         8.1520267930        7.9540382783        7.3813172679
  C         8.1580016205        6.4414445472        7.2726775946
  C         6.8571589101        5.8238160666        7.8140391386
  C         5.6364796785        6.5175596487        7.1929609732
  C         5.6058127732        8.0119060371        7.5587907841
  H         9.0285784407        6.0322851295        7.8070617837
  H         6.8360399175        4.7453021366        7.6021501321
  H         4.7040954198        6.0368182773        7.5208057601
  H         4.8993215045        8.5773789771        6.9329393115
  O         6.9738743271        9.9875970395        7.5449556472
  C         9.3432911328        8.7113860098        7.4054669071
  O         9.3707746269        9.9964724529        7.4936198328
  H        10.3131292471        8.1932339347        7.3601611037
  H         8.1152960825       10.2312258963        7.5252894438
  H         5.2508355843        8.1460970439        8.5945311212
  H         5.6738993245        6.4049953464        6.1002760889
  H         6.8231334117        5.9306785676        8.9078335706
  H         8.2800817175        6.1400363743        6.2198255634
      19
 i =      16, E =      -77.8159252825
  C         6.9527251987        8.6822970230        7.4782094536
  C         8.1519303078        7.9549385231        7.3814294229
  C         8.1580368839        6.4414318717        7.2727558144
  C         6.8573614282        5.8238451472        7.8141230195
  C         5.6365408129        6.5178140893        7.1929271999
  C         5.6057420800        8.0119305213        7.5587481314
  H         9.0285580666        6.0322888667        7.8071128637
  H         6.8360619326        4.7453109006        7.6021193617
  H         4.7040831456        6.0368636635        7.5208590021
  H         4.8993609172        8.5774337696        6.9329347058
  O         6.9741494616        9.9882928924        7.5451997223
  C         9.3436380052        8.7102252041        7.4054560458
  O         9.3702849509        9.9974185130        7.4934406431
  H        10.3128440747        8.1935211777        7.3602629637
  H         8.1152795310       10.2312076218        7.5253731329
  H         5.2508647644        8.1461492528        8.5946065495
  H         5.6739101782        6.4050192152        6.1002535617
  H         6.8231274541        5.9306680189        8.9078018830
  H         8.2801314337        6.1400900622        6.2198245195
      19
 i =      17, E =      -77.8159287204
  C         6.9530347652        8.6828354312        7.4784795701
  C         8.1525740128        7.9553322774        7.3816119879
  C         8.1580985166        6.4418065304        7.2729745537
  C         6.8577941570        5.8239796896        7.8142231286
  C         5.6365879973        6.5182731926        7.1929073147
  C         5.6059036105        8.0119542114        7.5587309068
  H         9.0285438753        6.0323407517        7.8073082754
  H         6.8361397901        4.7453879661        7.6020296215
  H         4.7041886205        6.0370761321        7.5209772577
  H         4.8995256297        8.5776922242        6.9328725901
  O         6.9746392674        9.9882262898        7.5458977917
  C         9.3438513215        8.7111021826        7.4056866549
  O         9.3694598143        9.9975791996        7.4927785500
  H        10.3127803446        8.1939364824        7.3605567969
  H         8.1153467870       10.2312339631        7.5256406947
  H         5.2510092233        8.1463201035        8.5947789550
  H         5.6739562402        6.4051212637        6.1001903434
  H         6.8231242184        5.9306399803        8.9078032570
  H         8.2802901850        6.1403404176        6.2198873117
      19
 i =      18, E =      -77.8159303875
  C         6.9532222794        8.6826349557        7.4785589763
  C         8.1525481525        7.9554889727        7.3817136624
  C         8.1582547957        6.4419161013        7.2729886294
  C         6.8577649576        5.8240662789        7.8141891777
  C         5.6366840519        6.5182704453        7.1929143812
  C         5.6059746193        8.0121629201        7.5587865552
  H         9.0285435932        6.0323736400        7.8073682403
  H         6.8361904082        4.7454603802        7.6019963838
  H         4.7042568843        6.0371786090        7.5210102833
  H         4.8996176937        8.5777649141        6.9328823129
  O         6.9746155940        9.9884742365        7.5462019425
  C         9.3438804382        8.7108981743        7.4056978536
  O         9.3694906351        9.9981147984        7.4926937577
  H        10.3128209260        8.1941323917        7.3606727904
  H         8.1153986201       10.2312689691        7.5257337444
  H         5.2510800285        8.1463719109        8.5947748410
  H         5.6739751006        6.4051742048        6.1001964202
  H         6.8231356394        5.9306361522        8.9078404441
  H         8.2803423995        6.1404569080        6.2199731736
      19
 i =      19, E =      -77.8159317486
  C         6.9532807752        8.6827579905        7.4786815133
  C         8.1526425892        7.9555359666        7.3818083755
  C         8.1583510653        6.4420365105        7.2730326146
  C         6.8577870818        5.8241498860        7.8141766462
  C         5.6367568659        6.5183293139        7.1929232835
  C         5.6060821246        8.0122919734        7.5588227284
  H         9.0285626188        6.0324096882        7.8074450336
  H         6.8362475168        4.7455445916        7.6019580738
  H         4.7043305682        6.0372888160        7.5210482305
  H         4.8997202225        8.5778636195        6.9328846454
  O         6.9746168805        9.9885013541        7.5465232510
  C         9.3439051859        8.7111522010        7.4057445209
  O         9.3695324041        9.9983542759        7.4926064466
  H        10.3129005448        8.1943189669        7.3607977114
  H         8.1154640129       10.2313335702        7.5258433358
  H         5.2511549391        8.1464384248        8.5947918034
  H         5.6739976654        6.4052341693        6.1002014961
  H         6.8231480393        5.9306327700        8.9078615465
  H         8.2804098516        6.1405874513        6.2200447306
      19
 i =      20, E =      -77.8159427724
  C         6.9537471802        8.6841612814        7.4800040832
  C         8.1537895584        7.9565705347        7.3827517573
  C         8.1589454103        6.4430678154        7.2736835348
  C         6.8583679486        5.8249142699        7.8142432880
  C         5.6373672378        6.5193837514        7.1929988370
  C         5.6070304350        8.0130644210        7.5590322013
  H         9.0288680275        6.0327745618        7.8082510591
  H         6.8368438675        4.7464180576        7.6015479899
  H         4.7050215829        6.0383778440        7.5214517543
  H         4.9007914176        8.5789093073        6.9329311767
  O         6.9749832308        9.9886639008        7.5496304278
  C         9.3445056071        8.7139674206        7.4062912472
  O         9.3698226812       10.0003727927        7.4921029436
  H        10.3135638142        8.1962943413        7.3620331134
  H         8.1161405477       10.2321867765        7.5270325597
  H         5.2518726210        8.1471558108        8.5950601640
  H         5.6742442449        6.4058592380        6.1002639603
  H         6.8232761440        5.9306226154        8.9079243601
  H         8.2811593863        6.1418790617        6.2205847609
