      19
 i =       0, E =      -77.8152354694
  C         6.9311689263        8.6966856278        7.4720928419
  C         8.1450411967        7.9560313070        7.3765039152
  C         8.1522681440        6.4419281140        7.2663139175
  C         6.8576620136        5.8215328170        7.8148855136
  C         5.6336712482        6.5082020701        7.1923576151
  C         5.5938958765        8.0004279450        7.5580447507
  H         9.0280975161        6.0345579684        7.7928294811
  H         6.8409942538        4.7423591835        7.6056833746
  H         4.7037497538        6.0222647871        7.5199340496
  H         4.8802091100        8.5647101345        6.9401643335
  O         6.9327052684        9.9843772859        7.5347840675
  C         9.3299365811        8.6896834663        7.3968157115
  O         9.3740713053        9.9941561885        7.4695056939
  H        10.3013549667        8.1838885249        7.3611157366
  H         8.2419236784       10.2620135752        7.5070249074
  H         5.2492474379        8.1318272926        8.5976870420
  H         5.6729568738        6.3950518692        6.0997029927
  H         6.8254503731        5.9314104042        8.9082334035
  H         8.2657875870        6.1449889218        6.2116061032
      19
 i =       1, E =      -77.8157256167
  C         6.9330551504        8.6981151329        7.4726705343
  C         8.1454376918        7.9580524083        7.3767980486
  C         8.1519295418        6.4430598656        7.2671148180
  C         6.8573330203        5.8210379427        7.8145505781
  C         5.6332357623        6.5081272514        7.1923701372
  C         5.5940818931        7.9996111531        7.5582797081
  H         9.0279687893        6.0347887709        7.7941475288
  H         6.8407561452        4.7424517299        7.6056107794
  H         4.7036446805        6.0226580702        7.5197267099
  H         4.8807185244        8.5650547388        6.9393405781
  O         6.9468943488        9.9847636712        7.5328964155
  C         9.3279483207        8.6899819679        7.3964876654
  O         9.3511059185       10.0029500292        7.4739642082
  H        10.3015066176        8.1837940712        7.3604228373
  H         8.2458502350       10.2512542198        7.5067321625
  H         5.2487081683        8.1322690637        8.5972718149
  H         5.6729516780        6.3952370678        6.0994955305
  H         6.8250323035        5.9314180929        8.9082764792
  H         8.2667043707        6.1443777490        6.2120249406
      19
 i =       2, E =      -77.8157884378
  C         6.9328395735        8.6996036455        7.4727583049
  C         8.1462055489        7.9561334596        7.3766954925
  C         8.1521330317        6.4431258407        7.2670146728
  C         6.8572691770        5.8213710445        7.8147564318
  C         5.6334816617        6.5080357248        7.1922334454
  C         5.5943336477        8.0005449614        7.5581609688
  H         9.0277577447        6.0349374549        7.7941812928
  H         6.8407874276        4.7422466745        7.6055464120
  H         4.7034501750        6.0226289563        7.5197676532
  H         4.8809649786        8.5649116074        6.9394700529
  O         6.9461292388        9.9835784346        7.5323785414
  C         9.3266820344        8.6937711870        7.3969839527
  O         9.3519751012       10.0003414314        7.4743637085
  H        10.3009380538        8.1853672107        7.3604346380
  H         8.2472278081       10.2495834338        7.5066769400
  H         5.2486482336        8.1322755499        8.5973462196
  H         5.6729167602        6.3952647383        6.0995477501
  H         6.8249627787        5.9313647299        8.9081453140
  H         8.2667281789        6.1445082779        6.2123309587
      19
 i =       3, E =      -77.8158216602
  C         6.9334766526        8.6978498089        7.4725771235
  C         8.1461444482        7.9566561815        7.3768347597
  C         8.1524704833        6.4428408827        7.2670534970
  C         6.8573006624        5.8214086957        7.8146935626
  C         5.6335986090        6.5083209766        7.1923052810
  C         5.5946444035        8.0012825930        7.5582553169
  H         9.0275962960        6.0350096628        7.7943061423
  H         6.8408537169        4.7422750870        7.6055198781
  H         4.7033535574        6.0227224276        7.5197673749
  H         4.8810676460        8.5649270557        6.9394500887
  O         6.9456955989        9.9842490825        7.5316230306
  C         9.3260682526        8.6919129318        7.3972861488
  O         9.3521760516       10.0018824429        7.4752261693
  H        10.2993245184        8.1883149772        7.3605043563
  H         8.2491614782       10.2473513897        7.5066322154
  H         5.2485850994        8.1323279952        8.5973506443
  H         5.6729004030        6.3952805690        6.0995055407
  H         6.8248487188        5.9313444098        8.9081585416
  H         8.2667956100        6.1445426019        6.2125695553
      19
 i =       4, E =      -77.8158434964
  C         6.9330434461        8.6993142266        7.4726051962
  C         8.1462686134        7.9557514069        7.3768427714
  C         8.1524160014        6.4428893591        7.2671386239
  C         6.8573365274        5.8214444702        7.8147017860
  C         5.6335277490        6.5084560192        7.1923230718
  C         5.5948259802        8.0011697384        7.5582717035
  H         9.0276411909        6.0349911907        7.7944619696
  H         6.8408795138        4.7422935553        7.6054997809
  H         4.7033816843        6.0228337787        7.5197494013
  H         4.8811688413        8.5650335028        6.9394057117
  O         6.9455142915        9.9829225134        7.5310441484
  C         9.3255071370        8.6937253453        7.3976146781
  O         9.3523745682       10.0009538973        7.4757484121
  H        10.2992651666        8.1894015749        7.3605140197
  H         8.2502709395       10.2464315641        7.5066297717
  H         5.2485881952        8.1324073277        8.5973712186
  H         5.6728903695        6.3953219811        6.0995315018
  H         6.8247931566        5.9313257243        8.9081384566
  H         8.2668688955        6.1445523611        6.2126170294
      19
 i =       5, E =      -77.8158623759
  C         6.9330938828        8.6978490994        7.4724089023
  C         8.1461534982        7.9563027126        7.3770176253
  C         8.1525463169        6.4426998675        7.2672343904
  C         6.8573019445        5.8214688627        7.8146956287
  C         5.6336158260        6.5086237431        7.1923300722
  C         5.5947755157        8.0013571697        7.5583002474
  H         9.0276532082        6.0349559035        7.7946702376
  H         6.8409209119        4.7423408826        7.6054648095
  H         4.7033765884        6.0230072260        7.5197439876
  H         4.8813429395        8.5651059502        6.9394115907
  O         6.9452725693        9.9833763381        7.5302118196
  C         9.3249911931        8.6926745952        7.3979135582
  O         9.3522304893       10.0021774811        7.4766727725
  H        10.2987980478        8.1913554087        7.3605644980
  H         8.2520922700       10.2452163964        7.5066463359
  H         5.2485981065        8.1325144033        8.5973581403
  H         5.6728729547        6.3953939975        6.0995713429
  H         6.8247070565        5.9313028184        8.9081277263
  H         8.2669763753        6.1445275864        6.2127209913
      19
 i =       6, E =      -77.8158761783
  C         6.9327263862        8.6990230376        7.4723891456
  C         8.1461827187        7.9556382589        7.3770578524
  C         8.1525729872        6.4427400333        7.2673202994
  C         6.8573059215        5.8214979827        7.8146988494
  C         5.6335486938        6.5086644854        7.1923539728
  C         5.5948043469        8.0011898231        7.5583044013
  H         9.0276809053        6.0349282707        7.7948128301
  H         6.8409318740        4.7423624935        7.6054413443
  H         4.7034029132        6.0231163674        7.5197301846
  H         4.8814327003        8.5652099675        6.9393733127
  O         6.9450368613        9.9822424145        7.5296082512
  C         9.3247842026        8.6939014669        7.3981951525
  O         9.3523802612       10.0016605718        7.4771989912
  H        10.2988672649        8.1921947977        7.3605835742
  H         8.2530433519       10.2447712977        7.5066773632
  H         5.2486088189        8.1325933089        8.5973741571
  H         5.6728670074        6.3954493994        6.0995839376
  H         6.8246556856        5.9312861559        8.9081253821
  H         8.2670535124        6.1445241288        6.2127763868
      19
 i =       7, E =      -77.8158857044
  C         6.9325598759        8.6989067568        7.4722705023
  C         8.1462623990        7.9556445852        7.3771564466
  C         8.1526422629        6.4427117368        7.2673926343
  C         6.8572948254        5.8215070272        7.8147015873
  C         5.6335398309        6.5086587370        7.1923581173
  C         5.5947093360        8.0011137912        7.5583025956
  H         9.0276970489        6.0348890074        7.7949536555
  H         6.8409314249        4.7423885120        7.6054153193
  H         4.7033915279        6.0232002004        7.5197301794
  H         4.8814994032        8.5652868686        6.9393463239
  O         6.9447396513        9.9820020233        7.5289742464
  C         9.3246706029        8.6939588503        7.3984119467
  O         9.3524414328       10.0019367825        7.4777529297
  H        10.2989907720        8.1929075430        7.3606177296
  H         8.2539280037       10.2446750695        7.5067357269
  H         5.2486156309        8.1326636269        8.5973805231
  H         5.6728621472        6.3955115204        6.0995882248
  H         6.8246041402        5.9312710136        8.9081353610
  H         8.2671383928        6.1445027165        6.2128515600
      19
 i =       8, E =      -77.8158939143
  C         6.9325525460        8.6983539486        7.4721623168
  C         8.1462749189        7.9558565512        7.3772414756
  C         8.1526947883        6.4426535747        7.2674445646
  C         6.8572857904        5.8215175223        7.8147078032
  C         5.6335622904        6.5086925233        7.1923520640
  C         5.5946574903        8.0011399785        7.5583010342
  H         9.0277074365        6.0348608003        7.7950580467
  H         6.8409383161        4.7424056338        7.6053967059
  H         4.7033722028        6.0232545243        7.5197319292
  H         4.8815549366        8.5653238603        6.9393373108
  O         6.9445562045        9.9821469101        7.5285246387
  C         9.3245380844        8.6936481836        7.3985570996
  O         9.3524256188       10.0023904337        7.4781733329
  H        10.2989514640        8.1935660153        7.3606466233
  H         8.2546468647       10.2444433048        7.5067667123
  H         5.2486166253        8.1327106709        8.5973788063
  H         5.6728559121        6.3955500272        6.0995976143
  H         6.8245647815        5.9312590593        8.9081349857
  H         8.2672003200        6.1444856456        6.2129062142
      19
 i =       9, E =      -77.8159685112
  C         6.9311204829        8.6988646244        7.4710319310
  C         8.1466714648        7.9550322425        7.3781679657
  C         8.1533535909        6.4424145391        7.2682875434
  C         6.8572203924        5.8217055458        7.8147727366
  C         5.6333701790        6.5089488303        7.1924050437
  C         5.5942491380        8.0005184863        7.5582380887
  H         9.0278836348        6.0344614538        7.7965414293
  H         6.8409995827        4.7426330235        7.6051404790
  H         4.7032394388        6.0239951897        7.5196935866
  H         4.8822724344        8.5660202223        6.9390668250
  O         6.9418026472        9.9786027187        7.5219259627
  C         9.3233270455        8.6958954359        7.4009282938
  O         9.3531488483       10.0043040313        7.4838357171
  H        10.2993464143        8.2015964839        7.3610301771
  H         8.2639123472       10.2420963378        7.5072473467
  H         5.2486530277        8.1333890831        8.5974026736
  H         5.6727865964        6.3960957491        6.0996525061
  H         6.8240192785        5.9310858444        8.9081681782
  H         8.2680996796        6.1443068017        6.2136529467
      19
 i =      10, E =      -77.8159814852
  C         6.9312208906        8.6974213029        7.4708320473
  C         8.1469431288        7.9557393206        7.3782886049
  C         8.1534146718        6.4423480369        7.2683220710
  C         6.8572026449        5.8216896050        7.8147737656
  C         5.6334157582        6.5088951666        7.1923761478
  C         5.5941256336        8.0005949864        7.5582180080
  H         9.0278886462        6.0344123648        7.7966370207
  H         6.8409891401        4.7426535647        7.6051258686
  H         4.7031787623        6.0239673660        7.5197027682
  H         4.8822754245        8.5660049301        6.9390635363
  O         6.9416388392        9.9794223387        7.5216625216
  C         9.3232796288        8.6948991437        7.4010085422
  O         9.3532015684       10.0051927389        7.4841123421
  H        10.2995414017        8.2017276973        7.3610912924
  H         8.2642182919       10.2425241027        7.5073110858
  H         5.2486598307        8.1334043445        8.5973689793
  H         5.6727813254        6.3961223814        6.0996451951
  H         6.8239869714        5.9310752893        8.9081878219
  H         8.2681744923        6.1442823263        6.2137397544
      19
 i =      11, E =      -77.8160016431
  C         6.9310159047        8.6979567803        7.4701768832
  C         8.1475105739        7.9555879548        7.3786817835
  C         8.1537881215        6.4425111608        7.2686872816
  C         6.8571934270        5.8217622582        7.8148253132
  C         5.6332024017        6.5085578973        7.1923437150
  C         5.5938382675        8.0000607245        7.5580255156
  H         9.0279211385        6.0341424921        7.7971722647
  H         6.8409376667        4.7427146012        7.6050377297
  H         4.7029826524        6.0238292590        7.5196900399
  H         4.8822763363        8.5660985779        6.9389222632
  O         6.9406238072        9.9781493073        7.5200099379
  C         9.3243539303        8.6959999311        7.4018340390
  O         9.3541676972       10.0058437277        7.4855579659
  H        10.3007878848        8.2021286729        7.3614275227
  H         8.2657554740       10.2448697071        7.5076592822
  H         5.2487127971        8.1335261943        8.5972753646
  H         5.6727584173        6.3962621383        6.0995627725
  H         6.8238045532        5.9309998255        8.9082648397
  H         8.2686114278        6.1442192641        6.2141561790
      19
 i =      12, E =      -77.8160082065
  C         6.9311165560        8.6970673636        7.4700731693
  C         8.1478348473        7.9560584342        7.3787645818
  C         8.1538138211        6.4424713379        7.2687492593
  C         6.8572025803        5.8217556562        7.8148309185
  C         5.6332204370        6.5085549228        7.1923192577
  C         5.5938409353        8.0001205726        7.5579790386
  H         9.0279365201        6.0340900501        7.7972812940
  H         6.8409419285        4.7427361784        7.6050265837
  H         4.7029320777        6.0237784269        7.5196876777
  H         4.8822805743        8.5660730830        6.9389075151
  O         6.9405840167        9.9786707280        7.5197833829
  C         9.3241922104        8.6955130849        7.4019378150
  O         9.3542116265       10.0064372072        7.4858265091
  H        10.3009008230        8.2023125530        7.3615126004
  H         8.2661206840       10.2450507725        7.5077113646
  H         5.2487291459        8.1335359031        8.5972370259
  H         5.6727489294        6.3962638037        6.0995524559
  H         6.8237686405        5.9309874902        8.9082727351
  H         8.2686989051        6.1442058026        6.2142334983
      19
 i =      13, E =      -77.8160247197
  C         6.9312854708        8.6976644024        7.4697557266
  C         8.1483795135        7.9559531447        7.3790598481
  C         8.1541478873        6.4425979952        7.2691392003
  C         6.8572287495        5.8218557834        7.8148762636
  C         5.6330680612        6.5084317119        7.1922784147
  C         5.5939621573        7.9998632026        7.5577511989
  H         9.0279787947        6.0338294762        7.7978188377
  H         6.8409736695        4.7428090338        7.6049601882
  H         4.7027914150        6.0235697699        7.5196318356
  H         4.8823351597        8.5660492868        6.9387736922
  O         6.9402476207        9.9778085006        7.5185471807
  C         9.3248588484        8.6966390032        7.4026746208
  O         9.3548573476       10.0071469820        7.4871313958
  H        10.3013840845        8.2031535451        7.3619564586
  H         8.2678449289       10.2460880695        7.5079866076
  H         5.2488475528        8.1336064171        8.5970560307
  H         5.6727057268        6.3962720199        6.0994770101
  H         6.8235833517        5.9309152497        8.9083120138
  H         8.2691507176        6.1441870613        6.2146210408
      19
 i =      14, E =      -77.8160294439
  C         6.9313255273        8.6970795852        7.4696774903
  C         8.1486175229        7.9562868959        7.3791344303
  C         8.1541888253        6.4425785570        7.2691807253
  C         6.8572273219        5.8218538656        7.8148733981
  C         5.6330965291        6.5084147020        7.1922594807
  C         5.5939600769        7.9999147535        7.5577281766
  H         9.0279913294        6.0337862571        7.7979110652
  H         6.8409866833        4.7428325822        7.6049519382
  H         4.7027764242        6.0235447546        7.5196229931
  H         4.8823654746        8.5660276479        6.9387635147
  O         6.9402307545        9.9781581685        7.5184028832
  C         9.3247269165        8.6963192771        7.4027660684
  O         9.3549611654       10.0075699522        7.4873309176
  H        10.3014910365        8.2033149362        7.3620401591
  H         8.2681460260       10.2462190451        7.5080334167
  H         5.2488797654        8.1336125443        8.5970099294
  H         5.6726978232        6.3962651601        6.0994720211
  H         6.8235528981        5.9309065815        8.9083226062
  H         8.2692256694        6.1441842968        6.2146949758
      19
 i =      15, E =      -77.8161714876
  C         6.9322651253        8.6968443157        7.4667148416
  C         8.1538279549        7.9587766557        7.3824935659
  C         8.1575476758        6.4437010831        7.2724811129
  C         6.8574830116        5.8227518750        7.8150548665
  C         5.6330128250        6.5072502059        7.1917071134
  C         5.5949048012        7.9986803146        7.5559830894
  H         9.0284836673        6.0313744186        7.8030609850
  H         6.8417946748        4.7438258265        7.6043867024
  H         4.7025219596        6.0223294340        7.5189047584
  H         4.8840252935        8.5656330021        6.9376450048
  O         6.9383775009        9.9754990575        7.5095952603
  C         9.3286108123        8.7017695465        7.4093727225
  O         9.3627775741       10.0167425336        7.4984059004
  H        10.3064350526        8.2119585300        7.3669220722
  H         8.2848665814       10.2545917132        7.5107956513
  H         5.2507613823        8.1341646690        8.5949477568
  H         5.6723109007        6.3958853335        6.0989782833
  H         6.8217997216        5.9303341667        8.9087269591
  H         8.2736193269        6.1443184409        6.2186154842
      19
 i =      16, E =      -77.8161781594
  C         6.9323641239        8.6969817384        7.4667785400
  C         8.1541197383        7.9589655829        7.3825348060
  C         8.1574469172        6.4437607414        7.2726273642
  C         6.8576636360        5.8227591153        7.8151048239
  C         5.6330620369        6.5073704761        7.1916823538
  C         5.5950192810        7.9985567511        7.5558668467
  H         9.0285255952        6.0313867172        7.8031061692
  H         6.8418900724        4.7438370963        7.6043798600
  H         4.7025709462        6.0223059233        7.5189204902
  H         4.8839829751        8.5656598382        6.9375843503
  O         6.9384483725        9.9757248153        7.5097619617
  C         9.3285836817        8.7018400246        7.4095011995
  O         9.3624082266       10.0164073614        7.4978015069
  H        10.3064986865        8.2120253169        7.3671054632
  H         8.2855922068       10.2547678075        7.5108600291
  H         5.2508124512        8.1341414125        8.5950679895
  H         5.6723362398        6.3958159537        6.0989377833
  H         6.8217947806        5.9303424344        8.9086954143
  H         8.2736876600        6.1443879777        6.2185797950
      19
 i =      17, E =      -77.8161913096
  C         6.9327594435        8.6976279412        7.4669822954
  C         8.1545524576        7.9592656918        7.3827318439
  C         8.1574420013        6.4439802018        7.2729275394
  C         6.8580185519        5.8228204340        7.8151945349
  C         5.6332620909        6.5075197716        7.1915929704
  C         5.5952765508        7.9984861236        7.5556962928
  H         9.0286056686        6.0314494805        7.8032355157
  H         6.8422036841        4.7438868480        7.6043560256
  H         4.7027876657        6.0222911047        7.5189568597
  H         4.8839619414        8.5656941225        6.9374517900
  O         6.9385223612        9.9761675843        7.5103598838
  C         9.3287373777        8.7014895972        7.4097491906
  O         9.3617713586       10.0160214396        7.4961973425
  H        10.3066515974        8.2122920407        7.3677062603
  H         8.2875819389       10.2553128229        7.5110177182
  H         5.2510443119        8.1340464258        8.5952445212
  H         5.6724311683        6.3956114232        6.0988359852
  H         6.8217829445        5.9303696993        8.9086663872
  H         8.2738839704        6.1446543568        6.2186339779
      19
 i =      18, E =      -77.8161948703
  C         6.9327716020        8.6978294547        7.4670601220
  C         8.1545540232        7.9591959990        7.3828400077
  C         8.1575423834        6.4440461901        7.2729474916
  C         6.8580277818        5.8228481562        7.8151793940
  C         5.6333562990        6.5074830132        7.1915684525
  C         5.5953540814        7.9986240085        7.5557275610
  H         9.0286268914        6.0314838300        7.8032853501
  H         6.8423186235        4.7439188733        7.6043492244
  H         4.7028921331        6.0223180017        7.5189634073
  H         4.8840242493        8.5656823661        6.9374461831
  O         6.9384483471        9.9763073915        7.5105801826
  C         9.3287382952        8.7013708960        7.4097366633
  O         9.3620110378       10.0160710897        7.4959820308
  H        10.3067934975        8.2123439172        7.3679155394
  H         8.2880750957       10.2554956585        7.5110217825
  H         5.2511577999        8.1340069410        8.5951973443
  H         5.6724757168        6.3955542567        6.0988148002
  H         6.8217827065        5.9303799769        8.9086976202
  H         8.2739422298        6.1447735455        6.2187375675
      19
 i =      19, E =      -77.8161985028
  C         6.9327907226        8.6980199418        7.4671528668
  C         8.1545695525        7.9592048889        7.3829557766
  C         8.1576075867        6.4440990544        7.2730053675
  C         6.8580693818        5.8228751505        7.8151792899
  C         5.6334557803        6.5074936558        7.1915441365
  C         5.5954467992        7.9987153692        7.5557273637
  H         9.0286607614        6.0315191736        7.8033464396
  H         6.8424438455        4.7439516490        7.6043408877
  H         4.7030001961        6.0223470650        7.5189738214
  H         4.8840859039        8.5656819545        6.9374358417
  O         6.9384035068        9.9764660675        7.5108120371
  C         9.3287790915        8.7012856220        7.4097329274
  O         9.3622189431       10.0160868650        7.4957894086
  H        10.3069284722        8.2123952430        7.3681416567
  H         8.2886305740       10.2556994810        7.5110253881
  H         5.2512704258        8.1339721569        8.5951760053
  H         5.6725268252        6.3954951881        6.0987909198
  H         6.8217831426        5.9303903352        8.9087174625
  H         8.2740130170        6.1448974372        6.2188221724
      19
 i =      20, E =      -77.8162301851
  C         6.9330862107        8.6997796968        7.4681292868
  C         8.1549510576        7.9599774537        7.3840484348
  C         8.1579377235        6.4445671914        7.2738494030
  C         6.8586976681        5.8231155035        7.8153221227
  C         5.6343786844        6.5079483096        7.1913151097
  C         5.5963480157        7.9991406134        7.5555110043
  H         9.0290799013        6.0318612469        7.8040135467
  H         6.8436513346        4.7442524066        7.6042493989
  H         4.7040337385        6.0226758210        7.5190981726
  H         4.8846557248        8.5658007192        6.9373140267
  O         6.9383227858        9.9777640031        7.5129309864
  C         9.3294887568        8.7008270181        7.4098543190
  O         9.3638232667       10.0160910571        7.4945169169
  H        10.3080577956        8.2128048043        7.3702995709
  H         8.2941339992       10.2577251785        7.5110686513
  H         5.2522741888        8.1337102921        8.5951788249
  H         5.6730662343        6.3949812741        6.0985782162
  H         6.8217969985        5.9304801792        8.9088064652
  H         8.2747622146        6.1460636842        6.2194375034
