      19
 i =       0, E =      -77.8147953142
  C         6.9333509086        8.6912424848        7.4728716632
  C         8.1437882906        7.9559494642        7.3760480394
  C         8.1526436117        6.4417860250        7.2691095029
  C         6.8564921380        5.8218100108        7.8147350497
  C         5.6332359902        6.5092049934        7.1911423659
  C         5.5944050255        8.0015707492        7.5564942489
  H         9.0264098984        6.0366718853        7.8008101176
  H         6.8393418199        4.7427686262        7.6049398871
  H         4.7028921365        6.0240487659        7.5185195297
  H         4.8841296916        8.5663208921        6.9349886179
  O         6.9330056287        9.9848773832        7.5381611146
  C         9.3321726792        8.6940927069        7.3944479612
  O         9.3748905994        9.9925653021        7.4678381916
  H        10.3013617973        8.1817555141        7.3561269422
  H         8.1955460420       10.2608753393        7.5102599895
  H         5.2457029983        8.1347838488        8.5945281467
  H         5.6729727948        6.3961022510        6.0985425372
  H         6.8227082892        5.9311197002        8.9080711262
  H         8.2718026525        6.1420570532        6.2158618026
      19
 i =       1, E =      -77.8154808291
  C         6.9358742121        8.6921954651        7.4734315289
  C         8.1439230874        7.9582241114        7.3764923637
  C         8.1523350983        6.4429771336        7.2699368810
  C         6.8562231597        5.8212571944        7.8142724801
  C         5.6329623695        6.5091044505        7.1912670718
  C         5.5945998611        8.0008226127        7.5566066708
  H         9.0263612986        6.0368093343        7.8019294595
  H         6.8391534153        4.7428448001        7.6048995050
  H         4.7028004767        6.0244090253        7.5183528327
  H         4.8844839670        8.5666252185        6.9342864853
  O         6.9534624704        9.9877092053        7.5367822994
  C         9.3297630455        8.6950165671        7.3942705151
  O         9.3504214199       10.0003894192        7.4717644137
  H        10.3015590494        8.1816999899        7.3556201533
  H         8.1957216784       10.2479863251        7.5098183785
  H         5.2452704392        8.1351452898        8.5942439599
  H         5.6729868329        6.3962613026        6.0983718597
  H         6.8223770513        5.9311559228        8.9081249955
  H         8.2725348884        6.1415047257        6.2160894139
      19
 i =       2, E =      -77.8155518962
  C         6.9362717766        8.6946100962        7.4736033414
  C         8.1443436504        7.9558626242        7.3763970338
  C         8.1525449315        6.4430853576        7.2697978647
  C         6.8562006140        5.8216069028        7.8145504765
  C         5.6332298874        6.5090316637        7.1910595237
  C         5.5950206089        8.0021892169        7.5565626397
  H         9.0261598144        6.0369668784        7.8020092291
  H         6.8391723473        4.7426152795        7.6048223028
  H         4.7026354547        6.0244354264        7.5183929197
  H         4.8846984943        8.5665068013        6.9343570445
  O         6.9535527245        9.9859470939        7.5366203254
  C         9.3288518073        8.6989773761        7.3947354769
  O         9.3505814453        9.9977350167        7.4719230826
  H        10.3008229506        8.1833207329        7.3556365822
  H         8.1960719151       10.2455591896        7.5097364682
  H         5.2452110798        8.1351761129        8.5942553627
  H         5.6729599225        6.3962991360        6.0984460862
  H         6.8223030479        5.9310969182        8.9079418735
  H         8.2725901533        6.1416502049        6.2164577273
      19
 i =       3, E =      -77.8155851907
  C         6.9374452038        8.6924915720        7.4735178992
  C         8.1444703447        7.9564105602        7.3765557101
  C         8.1528080298        6.4427176816        7.2698560664
  C         6.8562645943        5.8215999998        7.8144641940
  C         5.6334675771        6.5095428052        7.1911481392
  C         5.5956942006        8.0035440108        7.5566577516
  H         9.0260012233        6.0370730974        7.8021709663
  H         6.8392247391        4.7426353373        7.6047920871
  H         4.7025838418        6.0246366776        7.5184000434
  H         4.8847536397        8.5665871869        6.9342589021
  O         6.9544069391        9.9871000745        7.5365500931
  C         9.3279058318        8.6967786167        7.3949540689
  O         9.3500203058        9.9994581620        7.4723720627
  H        10.2992531990        8.1862801856        7.3557222750
  H         8.1964271071       10.2421952806        7.5096460390
  H         5.2451518045        8.1352984136        8.5942295779
  H         5.6729639194        6.3963285570        6.0983882076
  H         6.8221916919        5.9310810720        8.9079451426
  H         8.2726954434        6.1416856416        6.2167309681
      19
 i =       4, E =      -77.8156084742
  C         6.9371973923        8.6942518618        7.4736632284
  C         8.1445200277        7.9551634194        7.3765540004
  C         8.1527752130        6.4427347723        7.2699564177
  C         6.8562956536        5.8216556470        7.8144782020
  C         5.6334393586        6.5098257912        7.1911764915
  C         5.5960284792        8.0036086939        7.5566633703
  H         9.0260406545        6.0370685131        7.8023258156
  H         6.8392380286        4.7426346904        7.6047648322
  H         4.7026751512        6.0248591119        7.5183865275
  H         4.8848642822        8.5667646695        6.9341828853
  O         6.9547908976        9.9856133079        7.5364128301
  C         9.3275362962        8.6990768921        7.3952540497
  O         9.3498863223        9.9980370700        7.4725635692
  H        10.2991415664        8.1873894229        7.3557487289
  H         8.1966930484       10.2407080559        7.5096177579
  H         5.2451895638        8.1354491769        8.5942331669
  H         5.6729701234        6.3963948360        6.0984263492
  H         6.8221471630        5.9310603275        8.9079135017
  H         8.2727794036        6.1417007038        6.2167824507
      19
 i =       5, E =      -77.8156208046
  C         6.9376756982        8.6924921677        7.4736147577
  C         8.1444312525        7.9557642970        7.3767494179
  C         8.1529041993        6.4424369832        7.2700473815
  C         6.8562611756        5.8216736659        7.8144626064
  C         5.6336362971        6.5102230619        7.1911904726
  C         5.5961558844        8.0041431544        7.5566869569
  H         9.0260739331        6.0370306986        7.8025348891
  H         6.8392503671        4.7426790057        7.6047224509
  H         4.7027650699        6.0252279075        7.5183985576
  H         4.8850713929        8.5669421478        6.9341622749
  O         6.9554322450        9.9863636273        7.5363784243
  C         9.3269456865        8.6975701101        7.3954300270
  O         9.3493219597        9.9993412222        7.4729656776
  H        10.2986765545        8.1893962192        7.3558322414
  H         8.1971343327       10.2386090656        7.5095941519
  H         5.2452638725        8.1356762572        8.5941863756
  H         5.6729820617        6.3965174752        6.0984924320
  H         6.8220835980        5.9310381778        8.9078972915
  H         8.2728976623        6.1416673301        6.2168846904
      19
 i =       6, E =      -77.8156324038
  C         6.9373864064        8.6938446631        7.4737334727
  C         8.1444673399        7.9548003223        7.3767772288
  C         8.1529237878        6.4424560209        7.2701361589
  C         6.8562704326        5.8217140795        7.8144651123
  C         5.6336103479        6.5103830960        7.1912255406
  C         5.5963124076        8.0041034734        7.5566899590
  H         9.0261209007        6.0369937028        7.8026662099
  H         6.8392353510        4.7426985505        7.6046932742
  H         4.7028567894        6.0254710777        7.5183981262
  H         4.8851966840        8.5671320208        6.9341105476
  O         6.9556008695        9.9851195823        7.5362951218
  C         9.3268059803        8.6992244528        7.3956627092
  O         9.3492300184        9.9983356820        7.4731359121
  H        10.2987918013        8.1902090330        7.3558695530
  H         8.1974029902       10.2376994784        7.5096012509
  H         5.2453254538        8.1358396027        8.5941940696
  H         5.6729975115        6.3966147986        6.0985210244
  H         6.8220516579        5.9310208608        8.9078904913
  H         8.2729736979        6.1416610954        6.2169236545
      19
 i =       7, E =      -77.8156371753
  C         6.9373481063        8.6936644238        7.4737603685
  C         8.1445190920        7.9547146020        7.3768756120
  C         8.1529982137        6.4423767676        7.2701940421
  C         6.8562669232        5.8217291807        7.8144661122
  C         5.6336590794        6.5104783433        7.1912402227
  C         5.5962972956        8.0041412742        7.5566991033
  H         9.0261648569        6.0369262419        7.8027754986
  H         6.8391979003        4.7427345715        7.6046614938
  H         4.7029008652        6.0257038159        7.5184239220
  H         4.8853217391        8.5673011201        6.9340915342
  O         6.9556119402        9.9849194808        7.5362946163
  C         9.3267297104        8.6992066537        7.3957853260
  O         9.3490796321        9.9984523822        7.4733190794
  H        10.2989726265        8.1908995952        7.3559260347
  H         8.1977112811       10.2372077593        7.5096386641
  H         5.2453933656        8.1360029847        8.5942005293
  H         5.6730187321        6.3967337708        6.0985427297
  H         6.8220280214        5.9310067601        8.9078999310
  H         8.2730442369        6.1416277910        6.2169702379
      19
 i =       8, E =      -77.8156424913
  C         6.9374932342        8.6930184036        7.4737496624
  C         8.1445287182        7.9549373357        7.3769654799
  C         8.1530561652        6.4422659367        7.2702320007
  C         6.8562614536        5.8217392574        7.8144717080
  C         5.6337279473        6.5105984361        7.1912400553
  C         5.5963031473        8.0042776692        7.5567070182
  H         9.0261908958        6.0368820347        7.8028561420
  H         6.8391821803        4.7427545614        7.6046390983
  H         4.7029181097        6.0258562942        7.5184437553
  H         4.8854111805        8.5673969021        6.9340876467
  O         6.9557174431        9.9851484365        7.5362945236
  C         9.3265877045        8.6986775625        7.3958591264
  O         9.3488901609        9.9989085104        7.4734784546
  H        10.2989513493        8.1915633685        7.3559721576
  H         8.1979693990       10.2366525082        7.5096548315
  H         5.2454336303        8.1361107655        8.5941974584
  H         5.6730300153        6.3968080032        6.0985651424
  H         6.8220083401        5.9309960156        8.9078983439
  H         8.2730959084        6.1416035906        6.2170094219
      19
 i =       9, E =      -77.8156523845
  C         6.9373780779        8.6934697242        7.4741731404
  C         8.1450134549        7.9529160414        7.3778462903
  C         8.1536839999        6.4415141107        7.2709018176
  C         6.8562790433        5.8219536227        7.8145262738
  C         5.6340575692        6.5119678557        7.1914125513
  C         5.5968474177        8.0049331654        7.5568009969
  H         9.0266168765        6.0362303934        7.8039535346
  H         6.8389039531        4.7430139491        7.6043331683
  H         4.7033103119        6.0279685911        7.5186600783
  H         4.8866326799        8.5689682817        6.9339034973
  O         6.9565077529        9.9818343647        7.5360023283
  C         9.3254383751        8.7008564440        7.3973692009
  O         9.3471752433        9.9986401789        7.4754218317
  H        10.2998285772        8.1994083313        7.3565766126
  H         8.2017145331       10.2300915018        7.5099418169
  H         5.2460358527        8.1376377874        8.5942672922
  H         5.6732121678        6.3978766360        6.0988012959
  H         6.8217614697        5.9308387115        8.9079165180
  H         8.2738119403        6.1413378723        6.2174749677
      19
 i =      10, E =      -77.8156703413
  C         6.9376145035        8.6918103457        7.4740975316
  C         8.1451532246        7.9537862333        7.3779738420
  C         8.1537731680        6.4413781871        7.2708980326
  C         6.8562568285        5.8219338093        7.8145284295
  C         5.6341382705        6.5119318138        7.1913983778
  C         5.5966948677        8.0050311401        7.5568239877
  H         9.0266389321        6.0361339476        7.8039752098
  H         6.8388571509        4.7430407360        7.6043164579
  H         4.7032493592        6.0280129646        7.5187015324
  H         4.8867000279        8.5690040713        6.9339476678
  O         6.9562707199        9.9829067677        7.5360421691
  C         9.3254462417        8.6991447408        7.3973306634
  O         9.3470590482        9.9998655716        7.4755304567
  H        10.3000028320        8.1995596734        7.3566446103
  H         8.2021408171       10.2304386603        7.5100079031
  H         5.2460726420        8.1376946021        8.5942673669
  H         5.6732249752        6.3979530081        6.0988052042
  H         6.8217632633        5.9308319402        8.9079410333
  H         8.2738442065        6.1412899908        6.2175165236
      19
 i =      11, E =      -77.8156764842
  C         6.9372212643        8.6928785655        7.4742783929
  C         8.1457804299        7.9532106231        7.3782996039
  C         8.1540629827        6.4413410221        7.2710778237
  C         6.8562727179        5.8219673765        7.8145894850
  C         5.6339926697        6.5117006840        7.1914614164
  C         5.5965053464        8.0044663579        7.5568917852
  H         9.0267978426        6.0356166464        7.8041229712
  H         6.8385942199        4.7431167127        7.6042221980
  H         4.7030742254        6.0282545052        7.5188505446
  H         4.8870487334        8.5694308380        6.9340255131
  O         6.9547684910        9.9815703771        7.5358832468
  C         9.3262755282        8.7000293347        7.3977085344
  O         9.3471740801        9.9995231308        7.4759330639
  H        10.3015772173        8.1997370705        7.3569713513
  H         8.2045995613       10.2323881716        7.5103634352
  H         5.2462758643        8.1380413329        8.5943967918
  H         5.6733005853        6.3983669034        6.0987874541
  H         6.8217708362        5.9307736397        8.9080384905
  H         8.2740471562        6.1411229726        6.2176687740
      19
 i =      12, E =      -77.8156847076
  C         6.9374398117        8.6917574512        7.4742368960
  C         8.1459441496        7.9538123908        7.3784007263
  C         8.1541013321        6.4412437684        7.2711010836
  C         6.8562738479        5.8219513380        7.8146012234
  C         5.6340356211        6.5117333696        7.1914558476
  C         5.5965033207        8.0045838299        7.5569099980
  H         9.0268139917        6.0355251064        7.8041501535
  H         6.8385652389        4.7431257631        7.6042111977
  H         4.7030144840        6.0282467007        7.5188738478
  H         4.8871065148        8.5694409553        6.9340613565
  O         6.9546799137        9.9823346928        7.5358599312
  C         9.3261998347        8.6989491398        7.3977217682
  O         9.3470832988       10.0003596653        7.4760589268
  H        10.3016136432        8.1999524365        7.3570428081
  H         8.2050786439       10.2325047903        7.5104150801
  H         5.2462938225        8.1380675461        8.5944043088
  H         5.6733027146        6.3984108368        6.0987952117
  H         6.8217678314        5.9307629460        8.9080458550
  H         8.2740855594        6.1410896792        6.2177072182
      19
 i =      13, E =      -77.8156899383
  C         6.9374420936        8.6928714718        7.4744059199
  C         8.1464698928        7.9533226736        7.3786844164
  C         8.1542907452        6.4412183064        7.2713238580
  C         6.8562950098        5.8219795475        7.8146540725
  C         5.6338949522        6.5117734990        7.1915406470
  C         5.5967529914        8.0044176547        7.5569911256
  H         9.0268959933        6.0350770559        7.8042968670
  H         6.8384155692        4.7431399838        7.6041530585
  H         4.7028676424        6.0282667190        7.5189299945
  H         4.8874307452        8.5696508561        6.9341534870
  O         6.9540724513        9.9813679521        7.5355037452
  C         9.3265835624        8.6999246009        7.3981534297
  O         9.3471666592       10.0002044640        7.4765892075
  H        10.3022080452        8.2006122558        7.3573778348
  H         8.2075232502       10.2332260489        7.5106773869
  H         5.2464220940        8.1382346996        8.5944888305
  H         5.6733181030        6.3986432463        6.0988156539
  H         6.8217507022        5.9306957912        8.9080910920
  H         8.2742884105        6.1409921030        6.2178798004
      19
 i =      14, E =      -77.8156961313
  C         6.9375722782        8.6920652574        7.4743724684
  C         8.1465894635        7.9537640684        7.3787691250
  C         8.1543339668        6.4411520273        7.2713365101
  C         6.8562773580        5.8219695902        7.8146535195
  C         5.6339428809        6.5117782007        7.1915411787
  C         5.5967266677        8.0045032574        7.5570157573
  H         9.0269045989        6.0350053162        7.8043239472
  H         6.8383997209        4.7431529408        7.6041461736
  H         4.7028475978        6.0282762458        7.5189382485
  H         4.8874959089        8.5696572823        6.9341870154
  O         6.9540328945        9.9819377724        7.5354673878
  C         9.3265028496        8.6991578183        7.3981784057
  O         9.3471415884       10.0008328997        7.4767158897
  H        10.3022509797        8.2007845191        7.3574394535
  H         8.2079319596       10.2332981388        7.5107171209
  H         5.2464510659        8.1382522601        8.5944839740
  H         5.6733154110        6.3986744589        6.0988325531
  H         6.8217458255        5.9306854634        8.9081027672
  H         8.2743188821        6.1409756753        6.2179209865
      19
 i =      15, E =      -77.8158027287
  C         6.9378299671        8.6943851014        7.4751747935
  C         8.1506815111        7.9540781918        7.3819589774
  C         8.1563882166        6.4407142442        7.2731442102
  C         6.8560119512        5.8222249408        7.8149299536
  C         5.6339542346        6.5117660931        7.1922726986
  C         5.5977490270        8.0037143071        7.5580259640
  H         9.0274535976        6.0310107551        7.8059591761
  H         6.8374577430        4.7435564442        7.6036985510
  H         4.7025057587        6.0290116969        7.5190954256
  H         4.8910407353        8.5712994621        6.9352474860
  O         6.9504280225        9.9798312713        7.5317297873
  C         9.3285577123        8.7005986662        7.4021886836
  O         9.3494368358       10.0057389189        7.4833351633
  H        10.3069579990        8.2077622652        7.3607941707
  H         8.2313765382       10.2385421330        7.5130176730
  H         5.2481386726        8.1395295373        8.5949958588
  H         5.6732327437        6.4005058746        6.0995156238
  H         6.8214407786        5.9299905640        8.9086115665
  H         8.2761765017        6.1404927597        6.2198420818
      19
 i =      16, E =      -77.8158082903
  C         6.9379848680        8.6937657773        7.4751452726
  C         8.1508827589        7.9545558813        7.3820184667
  C         8.1562811553        6.4407388259        7.2732478266
  C         6.8562120521        5.8222119853        7.8150059962
  C         5.6340013143        6.5119431161        7.1922500965
  C         5.5979249120        8.0038144197        7.5579811139
  H         9.0274554110        6.0310101228        7.8060009621
  H         6.8374982735        4.7435663259        7.6036905547
  H         4.7024847833        6.0289796691        7.5191275458
  H         4.8909823959        8.5713309209        6.9352148537
  O         6.9503941136        9.9802796705        7.5317099002
  C         9.3284869066        8.7001836709        7.4023108450
  O         9.3498449885       10.0061147623        7.4836704010
  H        10.3069027053        8.2078668596        7.3608800470
  H         8.2317775988       10.2386389587        7.5130869348
  H         5.2481413226        8.1395144896        8.5951276452
  H         5.6732423640        6.4004870670        6.0994903820
  H         6.8214268012        5.9299776085        8.9085800590
  H         8.2762054289        6.1405465061        6.2198166558
      19
 i =      17, E =      -77.8158179910
  C         6.9382504531        8.6940631834        7.4751600600
  C         8.1511531296        7.9548760720        7.3821654822
  C         8.1562515901        6.4409725509        7.2734724264
  C         6.8565808848        5.8222689214        7.8151289135
  C         5.6340903268        6.5122463417        7.1922528556
  C         5.5982853917        8.0039947544        7.5579556948
  H         9.0274194802        6.0310473235        7.8061104831
  H         6.8376495288        4.7436021061        7.6036618409
  H         4.7025472695        6.0289688490        7.5191935582
  H         4.8909201026        8.5714311813        6.9351650045
  O         6.9503843796        9.9802482553        7.5315836534
  C         9.3288511762        8.7005468582        7.4028119019
  O         9.3511682922       10.0063750730        7.4847886689
  H        10.3068159101        8.2080544795        7.3611592440
  H         8.2330639254       10.2390119931        7.5133449511
  H         5.2482430809        8.1394701052        8.5953865735
  H         5.6732849586        6.4004472100        6.0994271099
  H         6.8213939947        5.9299372773        8.9085745951
  H         8.2762755842        6.1407801756        6.2198537826
      19
 i =      18, E =      -77.8158217237
  C         6.9383075236        8.6940617430        7.4751685738
  C         8.1513085757        7.9550319871        7.3822382793
  C         8.1563636599        6.4410592605        7.2734664760
  C         6.8565507298        5.8223204592        7.8151064388
  C         5.6341570256        6.5122358101        7.1922625695
  C         5.5982716690        8.0040993015        7.5580060111
  H         9.0274155962        6.0310746262        7.8061497142
  H         6.8377187290        4.7436405643        7.6036498993
  H         4.7026244359        6.0290189426        7.5192072503
  H         4.8909749050        8.5714459503        6.9352005573
  O         6.9505333990        9.9804212403        7.5315506879
  C         9.3289365686        8.7005507483        7.4030010863
  O         9.3515070289       10.0066898387        7.4852479614
  H        10.3068951441        8.2080588439        7.3612677208
  H         8.2335455373       10.2391525602        7.5134773956
  H         5.2483322389        8.1394615690        8.5953746399
  H         5.6733066096        6.4004522984        6.0994394093
  H         6.8213945456        5.9299274993        8.9086188656
  H         8.2762934105        6.1408852717        6.2199303974
      19
 i =      19, E =      -77.8158258404
  C         6.9383731939        8.6942084865        7.4751897601
  C         8.1514427018        7.9551520141        7.3823156711
  C         8.1564497988        6.4411692459        7.2734937459
  C         6.8565636450        5.8223811334        7.8151052008
  C         5.6342143684        6.5122642690        7.1922695330
  C         5.5983099133        8.0041678499        7.5580332748
  H         9.0274242502        6.0311008862        7.8061983165
  H         6.8377954122        4.7436875198        7.6036341596
  H         4.7027010542        6.0290699027        7.5192260948
  H         4.8910214339        8.5714798802        6.9352282566
  O         6.9506925767        9.9805110664        7.5315189078
  C         9.3290931641        8.7007079958        7.4032253882
  O         9.3519019998       10.0069336632        7.4857620000
  H        10.3069795435        8.2080666067        7.3613922519
  H         8.2340850480       10.2393208157        7.5136363141
  H         5.2484207217        8.1394606212        8.5953919832
  H         5.6733316859        6.4004611371        6.0994516806
  H         6.8213956168        5.9299168475        8.9086480947
  H         8.2763216511        6.1409988843        6.2199877818
      19
 i =      20, E =      -77.8158688970
  C         6.9392208401        8.6957964261        7.4754541846
  C         8.1527897332        7.9566087821        7.3831218789
  C         8.1570379091        6.4423150055        7.2740085944
  C         6.8570691656        5.8230018476        7.8152499171
  C         5.6347441162        6.5128747146        7.1923122283
  C         5.5990866613        8.0047134233        7.5581060838
  H         9.0276251980        6.0313551227        7.8067170350
  H         6.8385734814        4.7442485762        7.6034483536
  H         4.7033679286        6.0295638109        7.5194616544
  H         4.8914136663        8.5719431058        6.9354520562
  O         6.9522813731        9.9814200963        7.5313525222
  C         9.3308384122        8.7025019961        7.4055667634
  O         9.3559895974       10.0092171907        7.4909635527
  H        10.3078265876        8.2082545524        7.3627046042
  H         8.2395129988       10.2411171420        7.5154114618
  H         5.2492470466        8.1395334716        8.5957507658
  H         5.6736014239        6.4005970490        6.0995558238
  H         6.8214189364        5.9298315742        8.9087949613
  H         8.2766846524        6.1421251346        6.2203693126
