      19
 i =       0, E =      -77.8161268697
  C         6.9268049617        8.7075719138        7.4705351992
  C         8.1475470089        7.9561949927        7.3774156670
  C         8.1515172086        6.4422122920        7.2607227467
  C         6.8600017648        5.8209784293        7.8151864415
  C         5.6345417643        6.5061962235        7.1947881135
  C         5.5928775787        7.9981423367        7.5611457543
  H         9.0314727514        6.0303301345        7.7768682082
  H         6.8442991218        4.7415402980        7.6071703494
  H         4.7054649884        6.0186968295        7.5227630895
  H         4.8723679466        8.5614886194        6.9505157646
  O         6.9321045479        9.9833770912        7.5280299734
  C         9.3254643847        8.6808649851        7.4015512119
  O         9.3724327171        9.9973379613        7.4728406985
  H        10.3013413057        8.1881545465        7.3710933255
  H         8.3346789513       10.2642900470        7.5005547432
  H         5.2563363172        8.1259141801        8.6040048327
  H         5.6729250317        6.3929511056        6.1020239036
  H         6.8309345408        5.9319918123        8.9085579580
  H         8.2537574560        6.1508526591        6.2030947042
      19
 i =       1, E =      -77.8161684989
  C         6.9269349227        8.7082907826        7.4707985359
  C         8.1471924006        7.9571891457        7.3774268721
  C         8.1510400051        6.4432376723        7.2609158942
  C         6.8598000928        5.8205500658        7.8151234457
  C         5.6338802592        6.5059902410        7.1948166841
  C         5.5928981777        7.9971874354        7.5620694315
  H         9.0314761594        6.0303730758        7.7768228974
  H         6.8443099351        4.7415808809        7.6071887473
  H         4.7055159066        6.0187830956        7.5227738061
  H         4.8723730258        8.5615033349        6.9505505681
  O         6.9329065287        9.9805461359        7.5250026923
  C         9.3256210874        8.6809822966        7.4015263966
  O         9.3745737273       10.0011832796        7.4779729072
  H        10.3013747986        8.1881930404        7.3710449679
  H         8.3346088058       10.2642716177        7.5005895848
  H         5.2562993933        8.1258709505        8.6039442173
  H         5.6728808417        6.3929722124        6.1019902507
  H         6.8309291965        5.9320020587        8.9085966796
  H         8.2538012453        6.1508331563        6.2031069370
      19
 i =       2, E =      -77.8161931590
  C         6.9266187025        8.7063237907        7.4706362254
  C         8.1476960399        7.9572925553        7.3773833317
  C         8.1511400490        6.4431952675        7.2608472793
  C         6.8596942769        5.8208082521        7.8151797767
  C         5.6340910394        6.5058871321        7.1948285527
  C         5.5927732165        7.9973825700        7.5618304424
  H         9.0312804471        6.0305397006        7.7767274941
  H         6.8443531789        4.7414245371        7.6071472391
  H         4.7052777970        6.0186711461        7.5228376334
  H         4.8725999899        8.5613037358        6.9507927219
  O         6.9330057175        9.9816707961        7.5240675168
  C         9.3258282678        8.6828215559        7.4019292331
  O         9.3744500286       10.0008845636        7.4796032701
  H        10.3013563096        8.1882387163        7.3710111782
  H         8.3351996796       10.2644037376        7.5007280734
  H         5.2561959184        8.1258299582        8.6042241578
  H         5.6728283784        6.3929977405        6.1020085685
  H         6.8308992239        5.9319680759        8.9085592137
  H         8.2537712265        6.1509426141        6.2032651492
      19
 i =       3, E =      -77.8162146450
  C         6.9267664237        8.7069674600        7.4703930558
  C         8.1481539267        7.9575319249        7.3773513044
  C         8.1513461302        6.4433590986        7.2608205707
  C         6.8596915504        5.8208733120        7.8151554919
  C         5.6339344913        6.5057380994        7.1948934070
  C         5.5926538677        7.9970721412        7.5619943375
  H         9.0311263122        6.0306783050        7.7766621997
  H         6.8444239339        4.7414376789        7.6071291347
  H         4.7051218032        6.0185834482        7.5228668989
  H         4.8727152920        8.5612232480        6.9509292709
  O         6.9332138266        9.9805778207        7.5224769063
  C         9.3262208327        8.6835621445        7.4025221071
  O         9.3748321911       10.0019523504        7.4821325957
  H        10.3010809535        8.1886205096        7.3709895424
  H         8.3353939040       10.2647111849        7.5010296278
  H         5.2561105153        8.1257503709        8.6044131416
  H         5.6727663758        6.3930178263        6.1020219454
  H         6.8308493910        5.9319460396        8.9085751911
  H         8.2537445030        6.1510565259        6.2033645608
      19
 i =       4, E =      -77.8162277724
  C         6.9268212784        8.7060476293        7.4701597769
  C         8.1484786613        7.9578395590        7.3773496961
  C         8.1513476254        6.4435342524        7.2607989140
  C         6.8597174486        5.8209094860        7.8151523271
  C         5.6338949879        6.5056672682        7.1949101788
  C         5.5926790779        7.9970360002        7.5620931932
  H         9.0311269215        6.0307153234        7.7766712647
  H         6.8444812762        4.7414658835        7.6071176215
  H         4.7050175278        6.0185078353        7.5228889976
  H         4.8727595174        8.5611618062        6.9510133921
  O         6.9332800607        9.9809306452        7.5215582579
  C         9.3261899727        8.6840254759        7.4029476899
  O         9.3749348112       10.0026774906        7.4835972768
  H        10.3010997485        8.1888494225        7.3709991829
  H         8.3356694006       10.2649251930        7.5012645699
  H         5.2560750762        8.1256889089        8.6045148517
  H         5.6727188618        6.3930253239        6.1020455733
  H         6.8308225257        5.9319342366        8.9085716189
  H         8.2537409995        6.1511163481        6.2033758224
      19
 i =       5, E =      -77.8162459367
  C         6.9269135340        8.7064038209        7.4698415073
  C         8.1487501909        7.9579665044        7.3773386694
  C         8.1515053000        6.4437804155        7.2607882367
  C         6.8597469246        5.8210028052        7.8151432361
  C         5.6337648285        6.5055365390        7.1949768476
  C         5.5926965211        7.9968091531        7.5622211175
  H         9.0310960213        6.0307875933        7.7766610414
  H         6.8445941468        4.7415208750        7.6070935158
  H         4.7048883937        6.0183937999        7.5229134391
  H         4.8728461472        8.5610853450        6.9511456697
  O         6.9333640554        9.9801830601        7.5200681826
  C         9.3265095355        8.6850625072        7.4036743399
  O         9.3752081818       10.0036381388        7.4858218878
  H        10.3010366332        8.1893145470        7.3710482369
  H         8.3358937373       10.2653596226        7.5016893362
  H         5.2560467411        8.1255948865        8.6046719846
  H         5.6726405363        6.3930369182        6.1020763953
  H         6.8307835634        5.9319178348        8.9085682555
  H         8.2537385886        6.1512325608        6.2033914173
      19
 i =       6, E =      -77.8162563516
  C         6.9269599021        8.7057595220        7.4695983798
  C         8.1490968785        7.9583465307        7.3773620432
  C         8.1515651751        6.4439080531        7.2607674396
  C         6.8597780292        5.8210468009        7.8151325884
  C         5.6337367350        6.5054768278        7.1950009790
  C         5.5927086354        7.9967705573        7.5622885511
  H         9.0311088815        6.0308202374        7.7766666953
  H         6.8446778392        4.7415711189        7.6070777622
  H         4.7048071451        6.0183129851        7.5229345744
  H         4.8728908611        8.5610228943        6.9512355114
  O         6.9333929328        9.9803937093        7.5192215136
  C         9.3264628130        8.6853635451        7.4041208806
  O         9.3752785289       10.0044266792        7.4870300696
  H        10.3010589312        8.1896548789        7.3711126076
  H         8.3360914529       10.2656493914        7.5019822814
  H         5.2560540467        8.1255315050        8.6047485964
  H         5.6725872740        6.3930385912        6.1021046066
  H         6.8307645768        5.9319127933        8.9085674262
  H         8.2537445154        6.1513066160        6.2033956406
      19
 i =       7, E =      -77.8162654417
  C         6.9269965422        8.7057175505        7.4693595951
  C         8.1493178492        7.9585489507        7.3773992846
  C         8.1516797596        6.4440511865        7.2607589510
  C         6.8598242047        5.8211149239        7.8151215281
  C         5.6336954808        6.5054175119        7.1950342378
  C         5.5927293318        7.9966797590        7.5623294905
  H         9.0311367783        6.0308479123        7.7766694158
  H         6.8447877595        4.7416353078        7.6070555554
  H         4.7047559825        6.0182304228        7.5229535346
  H         4.8729279770        8.5609710945        6.9513219905
  O         6.9333659066        9.9802267266        7.5184198962
  C         9.3265669910        8.6858839889        7.4046018794
  O         9.3753278495       10.0050835286        7.4879960575
  H        10.3010791808        8.1900958128        7.3712345778
  H         8.3362160396       10.2660227629        7.5023287303
  H         5.2561035317        8.1254681546        8.6048092931
  H         5.6725283747        6.3930351034        6.1021349181
  H         6.8307537309        5.9319133381        8.9085649815
  H         8.2537624276        6.1514012978        6.2033914794
      19
 i =       8, E =      -77.8162721118
  C         6.9270266884        8.7058246860        7.4691991416
  C         8.1494375865        7.9586147793        7.3774193132
  C         8.1517591902        6.4441758975        7.2607597361
  C         6.8598563486        5.8211684316        7.8151170924
  C         5.6336534607        6.5053660366        7.1950608830
  C         5.5927505818        7.9965927100        7.5623629149
  H         9.0311512268        6.0308716710        7.7766691775
  H         6.8448631749        4.7416743525        7.6070391107
  H         4.7047176689        6.0181730504        7.5229673803
  H         4.8729537046        8.5609370889        6.9513814858
  O         6.9333541752        9.9799927173        7.5178123529
  C         9.3266835350        8.6863827319        7.4049407560
  O         9.3753960506       10.0055064201        7.4887782549
  H        10.3010918505        8.1903923323        7.3713148065
  H         8.3363059436       10.2662803524        7.5025617109
  H         5.2561304179        8.1254237568        8.6048639206
  H         5.6724873647        6.3930336415        6.1021520131
  H         6.8307450529        5.9319123671        8.9085611818
  H         8.2537747629        6.1514709548        6.2033903955
      19
 i =       9, E =      -77.8163262041
  C         6.9274607763        8.7044381036        7.4668515298
  C         8.1518670282        7.9609274065        7.3778398495
  C         8.1527971772        6.4457213964        7.2607231104
  C         6.8603426715        5.8218377140        7.8150175457
  C         5.6332738513        6.5047196940        7.1953619285
  C         5.5929960913        7.9957509210        7.5627824975
  H         9.0314236503        6.0311941941        7.7766749289
  H         6.8459748613        4.7422892357        7.6068063889
  H         4.7041950122        6.0173456087        7.5231920847
  H         4.8732760225        8.5604049991        6.9522365853
  O         6.9331650917        9.9789871049        7.5097336448
  C         9.3273452003        8.6914614601        7.4094973018
  O         9.3760244790       10.0123370942        7.4988190696
  H        10.3013991909        8.1947900527        7.3725920119
  H         8.3376488616       10.2699214209        7.5058374794
  H         5.2566143753        8.1247938610        8.6055354602
  H         5.6719085903        6.3929842349        6.1024093591
  H         6.8306533968        5.9319265264        8.9085217904
  H         8.2539783705        6.1524788814        6.2034079141
      19
 i =      10, E =      -77.8163315290
  C         6.9274531131        8.7050387143        7.4667422278
  C         8.1518070441        7.9608258861        7.3779114585
  C         8.1529195027        6.4458517501        7.2607519422
  C         6.8604097358        5.8219101468        7.8150105376
  C         5.6332660987        6.5046932078        7.1953763836
  C         5.5930346000        7.9956657835        7.5627474319
  H         9.0314856384        6.0312095532        7.7766710974
  H         6.8460994208        4.7423509482        7.6067779210
  H         4.7042322346        6.0172960537        7.5232128837
  H         4.8732621191        8.5603889560        6.9522738662
  O         6.9330465420        9.9785704522        7.5095909995
  C         9.3275812630        8.6920539244        7.4097284535
  O         9.3759051324       10.0121425542        7.4982421276
  H        10.3014428712        8.1952442346        7.3728097812
  H         8.3376260105       10.2702612997        7.5060568448
  H         5.2567416514        8.1247615554        8.6055343860
  H         5.6718706874        6.3929610991        6.1024177766
  H         6.8306745390        5.9319448392        8.9085156483
  H         8.2540257078        6.1525981551        6.2034088414
      19
 i =      11, E =      -77.8163442316
  C         6.9275282672        8.7047226991        7.4660543973
  C         8.1524351868        7.9616957354        7.3784372542
  C         8.1534052513        6.4464470264        7.2608969142
  C         6.8608111314        5.8222167355        7.8149493833
  C         5.6333922195        6.5045908844        7.1953945582
  C         5.5932001556        7.9955652224        7.5625505682
  H         9.0318785269        6.0313020136        7.7766689345
  H         6.8468050224        4.7427183661        7.6066228956
  H         4.7044081304        6.0170017433        7.5233586965
  H         4.8731579718        8.5602297610        6.9525105199
  O         6.9325050877        9.9788999635        7.5089340052
  C         9.3274216015        8.6927376771        7.4106237261
  O         9.3753584747       10.0131722020        7.4958551947
  H        10.3019593803        8.1977466300        7.3740698018
  H         8.3376402025       10.2719582896        7.5071187670
  H         5.2574629862        8.1245690485        8.6055068355
  H         5.6716621550        6.3928152421        6.1024697863
  H         6.8308039283        5.9320602848        8.9084840815
  H         8.2543043978        6.1532695407        6.2034411562
      19
 i =      12, E =      -77.8163469575
  C         6.9275290533        8.7052009117        7.4660188941
  C         8.1523079552        7.9614783233        7.3785241095
  C         8.1534866723        6.4465580722        7.2609543995
  C         6.8608861429        5.8222814194        7.8149461053
  C         5.6333983221        6.5045585504        7.1953955728
  C         5.5932508800        7.9954869366        7.5625035982
  H         9.0319428635        6.0313376416        7.7766613084
  H         6.8469380375        4.7427696184        7.6065906182
  H         4.7044653518        6.0169608489        7.5233890915
  H         4.8731264878        8.5602162299        6.9525363146
  O         6.9324211645        9.9786612177        7.5088606985
  C         9.3275755432        8.6931875415        7.4106258076
  O         9.3753910028       10.0133439066        7.4960165592
  H        10.3020771121        8.1981000307        7.3743065607
  H         8.3376143283       10.2721799137        7.5071673083
  H         5.2575997072        8.1245436760        8.6055094980
  H         5.6716346534        6.3927818691        6.1024647505
  H         6.8308356382        5.9320835715        8.9084735349
  H         8.2543645708        6.1534216922        6.2034665355
      19
 i =      13, E =      -77.8163555394
  C         6.9275290841        8.7050576726        7.4657609652
  C         8.1526676549        7.9619804952        7.3789956052
  C         8.1537910389        6.4469036536        7.2611699286
  C         6.8612490879        5.8224928388        7.8149071666
  C         5.6335834992        6.5044392078        7.1953533259
  C         5.5934225668        7.9954262213        7.5623014371
  H         9.0323037798        6.0315265376        7.7766460033
  H         6.8476320686        4.7430612509        7.6064342949
  H         4.7047235387        6.0167306897        7.5235707599
  H         4.8729737377        8.5600767105        6.9527101753
  O         6.9321130405        9.9791875574        7.5085434846
  C         9.3273975514        8.6940779267        7.4106988218
  O         9.3753063874       10.0148488898        7.4967259178
  H        10.3027349378        8.1999688049        7.3755069145
  H         8.3376500947       10.2732818854        7.5074263861
  H         5.2583052887        8.1243929323        8.6054826128
  H         5.6714973095        6.3925938899        6.1024453194
  H         6.8310036547        5.9322121213        8.9084337179
  H         8.2546762063        6.1541898533        6.2036150990
      19
 i =      14, E =      -77.8163575564
  C         6.9275426241        8.7054308922        7.4657474175
  C         8.1526412595        7.9620004379        7.3790241903
  C         8.1538744850        6.4470047524        7.2612038459
  C         6.8612969444        5.8225309944        7.8149060570
  C         5.6336016985        6.5044225627        7.1953521709
  C         5.5934479863        7.9953862968        7.5622797900
  H         9.0323618582        6.0315602865        7.7766486729
  H         6.8477455423        4.7430912712        7.6064089635
  H         4.7047799197        6.0167010407        7.5236006928
  H         4.8729495768        8.5600606233        6.9527336114
  O         6.9320655095        9.9790101553        7.5084914889
  C         9.3275934477        8.6944519534        7.4108164122
  O         9.3752498187       10.0148241993        7.4967231722
  H        10.3027474909        8.2002804216        7.3756793451
  H         8.3376393082       10.2734712944        7.5074720637
  H         5.2584125574        8.1243687242        8.6054818751
  H         5.6714831456        6.3925584643        6.1024352292
  H         6.8310328270        5.9322315063        8.9084285903
  H         8.2547293681        6.1543122727        6.2036282036
      19
 i =      15, E =      -77.8163984131
  C         6.9285286975        8.7083448501        7.4641898341
  C         8.1571093473        7.9698625833        7.3812616907
  C         8.1576417706        6.4525283040        7.2628716110
  C         6.8644698682        5.8244143420        7.8145996925
  C         5.6354953843        6.5037597258        7.1949720715
  C         5.5949693629        7.9950538220        7.5610288015
  H         9.0359288596        6.0336429424        7.7769380360
  H         6.8543384005        4.7450196833        7.6049990162
  H         4.7078036036        6.0148998443        7.5254576976
  H         4.8715105884        8.5587906756        6.9542742004
  O         6.9297097493        9.9822979431        7.5061197214
  C         9.3292839972        8.7039279882        7.4166745449
  O         9.3728621902       10.0231138130        7.4974249161
  H        10.3060104511        8.2176382744        7.3857146452
  H         8.3376668522       10.2835959485        7.5099143371
  H         5.2644975719        8.1228825549        8.6054610372
  H         5.6707013363        6.3904669556        6.1019843232
  H         6.8327287224        5.9333757676        8.9082025741
  H         8.2578608540        6.1613403843        6.2045084786
      19
 i =      16, E =      -77.8164099525
  C         6.9285899045        8.7088643485        7.4641400316
  C         8.1564397433        7.9686819916        7.3813887886
  C         8.1577233545        6.4527370732        7.2628898426
  C         6.8647418208        5.8246278461        7.8145375435
  C         5.6355382300        6.5037614619        7.1949488843
  C         5.5952375508        7.9950482860        7.5609705399
  H         9.0359002310        6.0338655907        7.7769062780
  H         6.8544713445        4.7451004160        7.6049836222
  H         4.7078886668        6.0149328757        7.5254924109
  H         4.8715292959        8.5588025954        6.9543002637
  O         6.9296111620        9.9825746546        7.5062434790
  C         9.3290520081        8.7041074262        7.4165421726
  O         9.3735278407       10.0237038996        7.4977612061
  H        10.3065656494        8.2173966646        7.3858642749
  H         8.3375352418       10.2835221562        7.5097831447
  H         5.2644956576        8.1228728638        8.6055531576
  H         5.6707530226        6.3904441610        6.1020195408
  H         6.8327635084        5.9333738931        8.9081857182
  H         8.2579464625        6.1615225342        6.2046001615
      19
 i =      17, E =      -77.8164154278
  C         6.9285528285        8.7094111423        7.4640255243
  C         8.1555595855        7.9675892086        7.3818309472
  C         8.1577943649        6.4527522524        7.2628875707
  C         6.8653866725        5.8249639978        7.8143803929
  C         5.6358791199        6.5038472764        7.1949065428
  C         5.5957448594        7.9953247370        7.5609102040
  H         9.0359133114        6.0345701804        7.7768565440
  H         6.8549405192        4.7454789836        7.6049437253
  H         4.7081635144        6.0150357658        7.5256324194
  H         4.8716433824        8.5587728106        6.9544443534
  O         6.9296591951        9.9838554610        7.5065947345
  C         9.3285971410        8.7039937808        7.4162360281
  O         9.3744167486       10.0245289905        7.4985340082
  H        10.3076043370        8.2169701594        7.3863556837
  H         8.3373863300       10.2834216162        7.5094116950
  H         5.2645712090        8.1228220418        8.6056694620
  H         5.6709195934        6.3903584277        6.1020793939
  H         6.8329143027        5.9334009132        8.9080984474
  H         8.2582400103        6.1620747340        6.2048238958
      19
 i =      18, E =      -77.8164183194
  C         6.9285165763        8.7097916608        7.4640742303
  C         8.1556961860        7.9681508939        7.3819194956
  C         8.1577624872        6.4527186006        7.2629126394
  C         6.8654264723        5.8249392217        7.8143922438
  C         5.6360340183        6.5039205615        7.1949281663
  C         5.5957385786        7.9954383867        7.5609555941
  H         9.0360156397        6.0347718854        7.7768920393
  H         6.8551161930        4.7455890224        7.6049199051
  H         4.7083106997        6.0150969383        7.5256858149
  H         4.8716739567        8.5587680799        6.9544928072
  O         6.9298026434        9.9839820423        7.5066417309
  C         9.3289008168        8.7039966717        7.4162832419
  O         9.3741284179       10.0240332549        7.4985024014
  H        10.3074678910        8.2170195919        7.3865214201
  H         8.3374276460       10.2834719164        7.5093306600
  H         5.2646425153        8.1228073039        8.6056323999
  H         5.6709840175        6.3903314559        6.1020668822
  H         6.8330004303        5.9334284919        8.9080470134
  H         8.2583565435        6.1622257384        6.2047885770
      19
 i =      19, E =      -77.8164199553
  C         6.9285466586        8.7100624800        7.4641241070
  C         8.1557672602        7.9684690298        7.3819977467
  C         8.1577641802        6.4528332438        7.2629434907
  C         6.8654936631        5.8249676354        7.8143959210
  C         5.6361768996        6.5039995537        7.1949388072
  C         5.5957883415        7.9955501865        7.5609833989
  H         9.0361195655        6.0349944264        7.7769289210
  H         6.8553022232        4.7456692565        7.6048871171
  H         4.7084783256        6.0151707644        7.5257430306
  H         4.8716856535        8.5587759713        6.9545331188
  O         6.9298910998        9.9843046466        7.5066958527
  C         9.3290257461        8.7039210844        7.4163358420
  O         9.3740379929       10.0238478291        7.4984838500
  H        10.3074523532        8.2170146597        7.3867019393
  H         8.3374441418       10.2834940725        7.5092408831
  H         5.2647087066        8.1227976831        8.6056255088
  H         5.6710592523        6.3903086228        6.1020672069
  H         6.8330945618        5.9334568931        8.9080099631
  H         8.2584809884        6.1623964916        6.2047611139
      19
 i =      20, E =      -77.8164330935
  C         6.9292074629        8.7126519068        7.4646167385
  C         8.1554848419        7.9692116424        7.3826072404
  C         8.1581974504        6.4547892715        7.2631876084
  C         6.8664333699        5.8256858794        7.8142974850
  C         5.6373730425        6.5047858947        7.1949341820
  C         5.5967615088        7.9965938178        7.5610714799
  H         9.0369791038        6.0372775632        7.7772235260
  H         6.8570924617        4.7462079361        7.6045045413
  H         4.7101259505        6.0159531097        7.5263141113
  H         4.8716650181        8.5589712868        6.9548461015
  O         6.9302677548        9.9880378769        7.5071762952
  C         9.3292302710        8.7035972418        7.4169466344
  O         9.3747488340       10.0240796820        7.4983934195
  H        10.3082199835        8.2164925429        7.3884772490
  H         8.3373927599       10.2835401632        7.5083686552
  H         5.2652824323        8.1227764760        8.6058218898
  H         5.6718504249        6.3901702510        6.1021848307
  H         6.8340191360        5.9337310998        8.9078573515
  H         8.2596592739        6.1642063967        6.2047391939
