      19
 i =       0, E =      -77.8166754456
  C         6.9442608200        8.6640267700        7.4767657700
  C         8.1375237600        7.9555402500        7.3737686600
  C         8.1545209500        6.4410755800        7.2830874300
  C         6.8506427600        5.8231959800        7.8139827300
  C         5.6310597000        6.5142196100        7.1850661200
  C         5.5969507700        8.0072847700        7.5487417400
  H         9.0179718100        6.0472414700        7.8407133000
  H         6.8310796500        4.7448158400        7.6012224500
  H         4.6986040500        6.0329686600        7.5114469300
  H         4.9037326000        8.5743746800        6.9091100400
  O         6.9345074300        9.9873778700        7.5550463500
  C         9.3433531700        8.7161389100        7.3826092100
  O         9.3789870700        9.9846108700        7.4595006800
  H        10.3013959500        8.1710904600        7.3311829700
  H         7.9636578600       10.2551841600        7.5264354000
  H         5.2279808000        8.1495666300        8.5787336700
  H         5.6730524000        6.4013541600        6.0927402600
  H         6.8089978700        5.9296661800        8.9072597400
  H         8.3018779800        6.1273977100        6.2371403000
      19
 i =       1, E =      -77.8166970539
  C         6.9444049572        8.6631648194        7.4773534870
  C         8.1375670946        7.9565649159        7.3744592403
  C         8.1546320927        6.4423190035        7.2840935110
  C         6.8504841511        5.8224345190        7.8128488487
  C         5.6312287954        6.5140572571        7.1857709286
  C         5.5967723851        8.0065054335        7.5485827409
  H         9.0179718741        6.0473333768        7.8406590936
  H         6.8311484269        4.7448321841        7.6013223843
  H         4.6985634444        6.0330711031        7.5113711341
  H         4.9037820790        8.5742876683        6.9090322708
  O         6.9314553025        9.9884645316        7.5575240158
  C         9.3432053512        8.7162088556        7.3829060224
  O         9.3831122477        9.9834009769        7.4595681328
  H        10.3014497973        8.1710534652        7.3312505031
  H         7.9635498711       10.2552030555        7.5264474695
  H         5.2279802004        8.1495028999        8.5786761839
  H         5.6731827964        6.4013940091        6.0926934081
  H         6.8090160235        5.9298089421        8.9072973278
  H         8.3018883754        6.1275008418        6.2371230905
      19
 i =       2, E =      -77.8167092890
  C         6.9437055751        8.6640222713        7.4777247241
  C         8.1374352106        7.9565414815        7.3746935436
  C         8.1546077674        6.4422374273        7.2836748468
  C         6.8506131625        5.8228824743        7.8134635069
  C         5.6311401146        6.5138388294        7.1853489009
  C         5.5968790553        8.0064181075        7.5487068308
  H         9.0180219576        6.0474057712        7.8407422494
  H         6.8312076328        4.7444884366        7.6012025506
  H         4.6985100024        6.0330350905        7.5113867820
  H         4.9038584255        8.5741796446        6.9090162173
  O         6.9320247964        9.9881339410        7.5583420775
  C         9.3440387074        8.7157246671        7.3829792013
  O         9.3837539650        9.9836997931        7.4595839894
  H        10.3013223336        8.1708574201        7.3312647295
  H         7.9626222783       10.2552261398        7.5265966221
  H         5.2279788458        8.1494621264        8.5786205881
  H         5.6731791201        6.4014317308        6.0929313566
  H         6.8090116771        5.9297326138        8.9068680025
  H         8.3018942273        6.1277745690        6.2375382440
      19
 i =       3, E =      -77.8167198584
  C         6.9438073803        8.6639087224        7.4781999207
  C         8.1371997225        7.9569771919        7.3750323985
  C         8.1545488349        6.4423733153        7.2838327912
  C         6.8507162646        5.8227282824        7.8132936822
  C         5.6311756494        6.5137186915        7.1853965332
  C         5.5967347891        8.0064109108        7.5487211409
  H         9.0179950370        6.0475678937        7.8407665641
  H         6.8313196066        4.7444857951        7.6011818214
  H         4.6984337433        6.0329885165        7.5113818652
  H         4.9039572263        8.5739842579        6.9090377847
  O         6.9322064969        9.9884886629        7.5598516872
  C         9.3442602721        8.7160347520        7.3831854476
  O         9.3848741447        9.9833186134        7.4595376814
  H        10.3016312652        8.1702646543        7.3312638092
  H         7.9616743753       10.2553030135        7.5268606406
  H         5.2279058090        8.1493633793        8.5786053252
  H         5.6732170505        6.4014219136        6.0929108642
  H         6.8089947511        5.9297358933        8.9068282575
  H         8.3019241747        6.1280357589        6.2377007219
      19
 i =       4, E =      -77.8167264648
  C         6.9437084999        8.6640478565        7.4785411818
  C         8.1372088151        7.9570305256        7.3752224878
  C         8.1545236074        6.4425453798        7.2838918352
  C         6.8507372183        5.8227424007        7.8133222854
  C         5.6311715731        6.5136666643        7.1853764449
  C         5.5967998505        8.0063542459        7.5487988270
  H         9.0179945335        6.0476741645        7.8408014079
  H         6.8313951454        4.7444165275        7.6011466490
  H         4.6984099268        6.0329586927        7.5113746189
  H         4.9039612297        8.5739161658        6.9089922809
  O         6.9322328950        9.9885776374        7.5608454286
  C         9.3446023958        8.7157998986        7.3832754288
  O         9.3855721486        9.9833616627        7.4595032635
  H        10.3016519867        8.1699533135        7.3312732271
  H         7.9611291262       10.2554322253        7.5270776659
  H         5.2278343534        8.1493050373        8.5786149099
  H         5.6732332908        6.4014165124        6.0929193122
  H         6.8089887936        5.9297177158        8.9067487359
  H         8.3019521073        6.1282107711        6.2377870457
      19
 i =       5, E =      -77.8167370742
  C         6.9437888259        8.6640985619        7.4790994730
  C         8.1371828302        7.9572640859        7.3755350394
  C         8.1544852176        6.4427431532        7.2840054487
  C         6.8507668638        5.8226965396        7.8132724771
  C         5.6311963301        6.5136007378        7.1853861068
  C         5.5968029852        8.0063281246        7.5488845068
  H         9.0179806514        6.0478562236        7.8408530325
  H         6.8315261870        4.7443662905        7.6011019776
  H         4.6983782114        6.0329174884        7.5113603422
  H         4.9040076989        8.5737789902        6.9089606747
  O         6.9321888174        9.9887838477        7.5625105723
  C         9.3449554828        8.7159127737        7.3834462594
  O         9.3866498323        9.9830246238        7.4594001382
  H        10.3018103609        8.1693611183        7.3312837793
  H         7.9603743614       10.2556736594        7.5274734305
  H         5.2277007324        8.1492051247        8.5786432017
  H         5.6732610199        6.4014051831        6.0929133496
  H         6.8089740016        5.9296939364        8.9066927778
  H         8.3019963446        6.1284949141        6.2379094341
      19
 i =       6, E =      -77.8167439323
  C         6.9438110961        8.6641264692        7.4794689519
  C         8.1371924613        7.9573970581        7.3757233311
  C         8.1544697913        6.4428718119        7.2840658978
  C         6.8507850045        5.8226840529        7.8132597558
  C         5.6312056889        6.5135747540        7.1853852589
  C         5.5968345572        8.0063124777        7.5489555632
  H         9.0179749373        6.0479707165        7.8408909995
  H         6.8316107225        4.7443384989        7.6010705500
  H         4.6983711450        6.0328967217        7.5113485635
  H         4.9040399871        8.5737062039        6.9089383363
  O         6.9322069516        9.9889220484        7.5636044794
  C         9.3452238770        8.7157177060        7.3835252434
  O         9.3872799710        9.9830031445        7.4593269476
  H        10.3018576500        8.1690084318        7.3312941604
  H         7.9599107918       10.2558527188        7.5277668017
  H         5.2276042074        8.1491426875        8.5786656800
  H         5.6732767156        6.4013998642        6.0929138665
  H         6.8089636265        5.9296733574        8.9066614512
  H         8.3020268772        6.1286738110        6.2379740884
      19
 i =       7, E =      -77.8167514585
  C         6.9438707413        8.6641690768        7.4798910944
  C         8.1372169412        7.9575140642        7.3759104821
  C         8.1544546252        6.4429859471        7.2841251398
  C         6.8508056225        5.8226697059        7.8132369938
  C         5.6312242742        6.5135680486        7.1853918617
  C         5.5968643354        8.0063138485        7.5490382925
  H         9.0179693462        6.0480934666        7.8409357451
  H         6.8317040712        4.7443334153        7.6010372420
  H         4.6983781180        6.0328837951        7.5113331818
  H         4.9040976395        8.5736378921        6.9089288227
  O         6.9322408009        9.9890522896        7.5648494929
  C         9.3454563474        8.7156752761        7.3836015852
  O         9.3878717936        9.9828419608        7.4592081831
  H        10.3019322548        8.1686023966        7.3313045284
  H         7.9595063722       10.2560798391        7.5281470665
  H         5.2274833508        8.1490758656        8.5786967178
  H         5.6732921566        6.4013976665        6.0929130208
  H         6.8089501667        5.9296469539        8.9066528214
  H         8.3020620729        6.1288628954        6.2380222453
      19
 i =       8, E =      -77.8167569957
  C         6.9439124251        8.6642231304        7.4801987369
  C         8.1372195426        7.9575920077        7.3760508246
  C         8.1544420900        6.4430761185        7.2841657657
  C         6.8508199383        5.8226687082        7.8132331830
  C         5.6312414238        6.5135542741        7.1853920286
  C         5.5968863353        8.0063080958        7.5491016715
  H         9.0179663314        6.0481812898        7.8409669471
  H         6.8317702980        4.7443168726        7.6010107970
  H         4.6983769686        6.0328726304        7.5113242592
  H         4.9041355379        8.5735895357        6.9089176731
  O         6.9322579074        9.9891403092        7.5657457041
  C         9.3456345104        8.7156818302        7.3836628118
  O         9.3883308860        9.9827011430        7.4591254463
  H        10.3019880417        8.1683106841        7.3313109688
  H         7.9592003885       10.2562304088        7.5284141905
  H         5.2273988910        8.1490276513        8.5787176091
  H         5.6733041636        6.4013978260        6.0929146810
  H         6.8089419879        5.9296280129        8.9066312993
  H         8.3020871981        6.1290010289        6.2380658364
      19
 i =       9, E =      -77.8168264196
  C         6.9445463211        8.6647303284        7.4845856349
  C         8.1372890772        7.9588645550        7.3779969596
  C         8.1542895440        6.4442924998        7.2847481650
  C         6.8510339887        5.8225895904        7.8130970338
  C         5.6314871054        6.5134265409        7.1854444492
  C         5.5972185648        8.0063155453        7.5500076156
  H         9.0179267173        6.0494076536        7.8414049179
  H         6.8327013494        4.7441754551        7.6006488365
  H         4.6984069156        6.0327490776        7.5111917362
  H         4.9047333563        8.5729436337        6.9088007221
  O         6.9326889428        9.9905857517        7.5783112082
  C         9.3481034284        8.7149611413        7.3844188383
  O         9.3946107442        9.9813272855        7.4578980254
  H        10.3026787801        8.1642736688        7.3314037413
  H         7.9550308017       10.2583845082        7.5323582671
  H         5.2261613274        8.1483514205        8.5790382893
  H         5.6734799186        6.4014164273        6.0929246433
  H         6.8088255700        5.9293627952        8.9064184034
  H         8.3024447186        6.1309115623        6.2386143953
      19
 i =      10, E =      -77.8168300503
  C         6.9445917907        8.6648564273        7.4849691516
  C         8.1373448293        7.9588770805        7.3781058989
  C         8.1542837208        6.4443575138        7.2847722979
  C         6.8510580858        5.8225934856        7.8130882314
  C         5.6315164979        6.5134632235        7.1854571016
  C         5.5972702182        8.0063492306        7.5501100937
  H         9.0179288669        6.0494891969        7.8414385060
  H         6.8327658920        4.7442013230        7.6006191055
  H         4.6984425936        6.0327691117        7.5111804784
  H         4.9048303520        8.5729439582        6.9088158286
  O         6.9327418667        9.9907594026        7.5787255697
  C         9.3482151010        8.7150580061        7.3844314601
  O         9.3949072172        9.9811552851        7.4577225927
  H        10.3027217749        8.1639773828        7.3314048024
  H         7.9549524628       10.2585882700        7.5328041083
  H         5.2260297500        8.1483079987        8.5790832054
  H         5.6734961287        6.4014395015        6.0929338303
  H         6.8088188998        5.9293355327        8.9064344390
  H         8.3024744167        6.1310341104        6.2386185765
      19
 i =      11, E =      -77.8168487701
  C         6.9450550179        8.6653411002        7.4869573069
  C         8.1374244559        7.9592870808        7.3788095371
  C         8.1543015069        6.4446992445        7.2849212911
  C         6.8511806527        5.8226590975        7.8130829487
  C         5.6317291067        6.5136742018        7.1855315979
  C         5.5975319351        8.0065907060        7.5507290918
  H         9.0179422980        6.0499324991        7.8416186144
  H         6.8331262097        4.7443187648        7.6004392498
  H         4.6986318216        6.0328912749        7.5111279633
  H         4.9053932544        8.5729643277        6.9089105934
  O         6.9330871830        9.9918514937        7.5810702522
  C         9.3489800544        8.7146957345        7.3844236927
  O         9.3965938976        9.9808727865        7.4568045905
  H        10.3028318144        8.1624275946        7.3314078399
  H         7.9544638611       10.2597073007        7.5352735084
  H         5.2252701064        8.1480611810        8.5793422239
  H         5.6735937532        6.4015915789        6.0929907446
  H         6.8087897888        5.9291785376        8.9064873355
  H         8.3026406905        6.1317237069        6.2386527690
      19
 i =      12, E =      -77.8168518462
  C         6.9450714202        8.6655362811        7.4872074527
  C         8.1374725457        7.9593464216        7.3789732416
  C         8.1542920411        6.4447870954        7.2849676587
  C         6.8512085000        5.8226763039        7.8130906648
  C         5.6317770915        6.5137212109        7.1855568345
  C         5.5976003294        8.0066499963        7.5508537781
  H         9.0179537136        6.0500024800        7.8416494700
  H         6.8331851948        4.7443343646        7.6004020299
  H         4.6986684680        6.0329267839        7.5111241624
  H         4.9055127734        8.5729934859        6.9089340381
  O         6.9331437259        9.9920089311        7.5814628533
  C         9.3490809672        8.7147950817        7.3844167534
  O         9.3969161805        9.9806939162        7.4567058281
  H        10.3028625895        8.1621634026        7.3313938938
  H         7.9544047971       10.2598958373        7.5356705612
  H         5.2251227994        8.1480209749        8.5794038997
  H         5.6736198280        6.4016414386        6.0930074337
  H         6.8087915575        5.9291498308        8.9064832957
  H         8.3026686956        6.1318562037        6.2386715453
      19
 i =      13, E =      -77.8168665035
  C         6.9454182387        8.6661639200        7.4884838144
  C         8.1374698430        7.9599030046        7.3798231825
  C         8.1543067119        6.4452240455        7.2852086113
  C         6.8513458298        5.8227555291        7.8131070819
  C         5.6320387513        6.5139895270        7.1856896039
  C         5.5978815541        8.0069972812        7.5514765591
  H         9.0180016003        6.0503656372        7.8417998455
  H         6.8334922644        4.7444328762        7.6002073118
  H         4.6988641121        6.0331292451        7.5111104902
  H         4.9061313258        8.5731455570        6.9090735570
  O         6.9334691307        9.9930899743        7.5834371901
  C         9.3497455867        8.7144532096        7.3843599877
  O         9.3985612274        9.9804873188        7.4563175908
  H        10.3029134645        8.1608803879        7.3313101243
  H         7.9540642416       10.2608515149        7.5377045233
  H         5.2243695541        8.1478246347        8.5797222733
  H         5.6737639410        6.4019187566        6.0931061132
  H         6.8088034591        5.9290020788        8.9064885811
  H         8.3028068550        6.1325568547        6.2387932245
      19
 i =      14, E =      -77.8168687989
  C         6.9454212136        8.6663407766        7.4887062379
  C         8.1375208242        7.9599315733        7.3799367439
  C         8.1543018910        6.4453056062        7.2852532082
  C         6.8513728179        5.8227704031        7.8131066399
  C         5.6320732526        6.5140474791        7.1857124839
  C         5.5979317264        8.0070523282        7.5515694187
  H         9.0180106071        6.0504288888        7.8418248153
  H         6.8335406752        4.7444560217        7.6001725528
  H         4.6989035205        6.0331759067        7.5111113858
  H         4.9062276160        8.5731868753        6.9090974515
  O         6.9335129763        9.9932638685        7.5836888828
  C         9.3498249537        8.7145954189        7.3843869097
  O         9.3988164826        9.9803217709        7.4563011719
  H        10.3029411290        8.1606650923        7.3312799774
  H         7.9540345225       10.2610082940        7.5380117429
  H         5.2242593823        8.1478054306        8.5797737654
  H         5.6737941254        6.4019801413        6.0931303201
  H         6.8088083385        5.9289766951        8.9064981298
  H         8.3028266607        6.1326872718        6.2388266463
      19
 i =      15, E =      -77.8169348860
  C         6.9485189261        8.6731649245        7.5009258307
  C         8.1378188194        7.9650410956        7.3869759779
  C         8.1545799461        6.4497937572        7.2878842609
  C         6.8527616180        5.8238668694        7.8132948702
  C         5.6344631202        6.5174630044        7.1870828647
  C         5.6003022063        8.0108242878        7.5571062743
  H         9.0184804176        6.0540749767        7.8432223114
  H         6.8363543005        4.7458175208        7.5980865386
  H         4.7010874622        6.0359678344        7.5112389153
  H         4.9117283143        8.5756212216        6.9105607675
  O         6.9363487671       10.0051706483        7.5980275654
  C         9.3557133238        8.7128678907        7.3854473381
  O         9.4134069959        9.9786215488        7.4559446152
  H        10.3033094151        8.1492430495        7.3295349632
  H         7.9518286985       10.2700319454        7.5556495430
  H         5.2178890362        8.1467581397        8.5827024310
  H         5.6755810632        6.4056741151        6.0945067092
  H         6.8091188983        5.9274781907        8.9069507550
  H         8.3039710206        6.1402471739        6.2407559338
      19
 i =      16, E =      -77.8169444681
  C         6.9482042977        8.6739403250        7.5008911027
  C         8.1380293926        7.9650482086        7.3871162276
  C         8.1544754587        6.4499585367        7.2880106659
  C         6.8527749607        5.8239752162        7.8133750510
  C         5.6345487148        6.5175995842        7.1871747882
  C         5.6004674851        8.0110509099        7.5572178858
  H         9.0185506858        6.0541523179        7.8432893558
  H         6.8363757032        4.7459105576        7.5980153355
  H         4.7011134489        6.0361055439        7.5112779187
  H         4.9117621126        8.5758018402        6.9105933132
  O         6.9361679134       10.0045659762        7.5971904539
  C         9.3556582108        8.7138941355        7.3856181287
  O         9.4134223330        9.9778470644        7.4560395110
  H        10.3033673259        8.1491774120        7.3294255030
  H         7.9520202013       10.2702594753        7.5556636740
  H         5.2178766415        8.1468580670        8.5827486301
  H         5.6756551287        6.4058643005        6.0945128887
  H         6.8091463495        5.9274414050        8.9069509671
  H         8.3039900371        6.1404269668        6.2407549926
      19
 i =      17, E =      -77.8169537745
  C         6.9482792861        8.6742235718        7.5005350080
  C         8.1378888603        7.9659296713        7.3876906235
  C         8.1544551379        6.4504595150        7.2883622348
  C         6.8528086528        5.8242763786        7.8135523023
  C         5.6348207515        6.5181285368        7.1874183812
  C         5.6006658594        8.0117962165        7.5574808093
  H         9.0186837183        6.0544272826        7.8434540579
  H         6.8364506005        4.7462601483        7.5977880406
  H         4.7012230200        6.0365978958        7.5114046773
  H         4.9118868701        8.5763334597        6.9107669691
  O         6.9359938779       10.0044663402        7.5949695886
  C         9.3557396885        8.7134330993        7.3859391215
  O         9.4134583991        9.9784927916        7.4565257918
  H        10.3031919669        8.1492692533        7.3291054961
  H         7.9522739962       10.2708073231        7.5556542002
  H         5.2178371427        8.1472070425        8.5829211743
  H         5.6759070262        6.4064999521        6.0946112684
  H         6.8092267968        5.9273324369        8.9070436695
  H         8.3040176296        6.1410355881        6.2408653591
      19
 i =      18, E =      -77.8169571411
  C         6.9481387006        8.6744589236        7.5004261349
  C         8.1380700026        7.9657342605        7.3878488755
  C         8.1544826928        6.4506569931        7.2884689612
  C         6.8528526949        5.8243847078        7.8135760529
  C         5.6348205213        6.5183405030        7.1874725060
  C         5.6006852266        8.0118973061        7.5575096416
  H         9.0186976986        6.0545588917        7.8435033119
  H         6.8364746642        4.7464021749        7.5977045772
  H         4.7012989804        6.0368064728        7.5114385983
  H         4.9119349082        8.5765380135        6.9108348001
  O         6.9360323550       10.0047424289        7.5945598830
  C         9.3556531122        8.7141834889        7.3860909277
  O         9.4134678983        9.9781167718        7.4565559734
  H        10.3032264214        8.1492324225        7.3289935823
  H         7.9523377488       10.2709380685        7.5555842658
  H         5.2178508333        8.1473679945        8.5830037480
  H         5.6760036589        6.4067430792        6.0946983156
  H         6.8092494275        5.9272975224        8.9071252309
  H         8.3040123043        6.1413027222        6.2409763871
      19
 i =      19, E =      -77.8169599467
  C         6.9482017642        8.6745648741        7.5002984857
  C         8.1380516517        7.9658442534        7.3880514971
  C         8.1545393388        6.4508165614        7.2885903411
  C         6.8528857907        5.8245218782        7.8136201185
  C         5.6348596648        6.5185621899        7.1875355567
  C         5.6006733692        8.0120682144        7.5575586538
  H         9.0187204665        6.0546954832        7.8435605372
  H         6.8365028952        4.7465598140        7.5976073289
  H         4.7013636877        6.0370314862        7.5114811982
  H         4.9119780529        8.5767577965        6.9109128736
  O         6.9360815711       10.0050731709        7.5941626860
  C         9.3556807904        8.7141699920        7.3861995853
  O         9.4134926837        9.9783352708        7.4566256358
  H        10.3031629875        8.1492786715        7.3288820699
  H         7.9523611974       10.2710851008        7.5554999692
  H         5.2178726490        8.1475469776        8.5830796021
  H         5.6761084369        6.4070135042        6.0947850113
  H         6.8092751296        5.9272594388        8.9072011390
  H         8.3040107886        6.1415923954        6.2410902818
      19
 i =      20, E =      -77.8169776658
  C         6.9486304206        8.6765983815        7.4993742744
  C         8.1379070787        7.9675910129        7.3900087575
  C         8.1548220478        6.4522601791        7.2898997030
  C         6.8531531776        5.8258952130        7.8141677308
  C         5.6354195177        6.5206784201        7.1882350845
  C         5.6008050601        8.0141322349        7.5581262868
  H         9.0191250615        6.0559878434        7.8442532515
  H         6.8367690025        4.7481871657        7.5966138367
  H         4.7018709402        6.0392150785        7.5119252936
  H         4.9122790270        8.5789720382        6.9116424271
  O         6.9362992014       10.0074163854        7.5909425259
  C         9.3559474058        8.7142865210        7.3871742842
  O         9.4138635477        9.9801825197        7.4571852112
  H        10.3025980270        8.1498129574        7.3278401223
  H         7.9527293599       10.2727225690        7.5545409059
  H         5.2181932813        8.1493899520        8.5837588009
  H         5.6771326057        6.4097137598        6.0955299704
  H         6.8095295587        5.9269016214        8.9078651834
  H         8.3040575583        6.1444531485        6.2420760566
