      19
 i =       0, E =      -77.8163084762
  C         6.9420788377        8.6694699130        7.4759869486
  C         8.1387766661        7.9556220928        7.3742245359
  C         8.1541454823        6.4412176690        7.2802918446
  C         6.8518126356        5.8229187862        7.8141331939
  C         5.6314949580        6.5132166867        7.1862813692
  C         5.5964416211        8.0061419658        7.5502922418
  H         9.0196594277        6.0451275531        7.8327326635
  H         6.8327320840        4.7444063972        7.6019659374
  H         4.6994616673        6.0311846812        7.5128614499
  H         4.8998120183        8.5727639224        6.9142857556
  O         6.9342070697        9.9868777726        7.5516693029
  C         9.3411170718        8.7117296694        7.3849769602
  O         9.3781677759        9.9862017564        7.4611681823
  H        10.3013891195        8.1732234708        7.3361717644
  H         8.0100354964       10.2563223959        7.5232003179
  H         5.2315252397        8.1466100738        8.5818925653
  H         5.6730364790        6.4003037782        6.0939007154
  H         6.8117399538        5.9299568840        8.9074220172
  H         8.2958629145        6.1303295786        6.2328846005
      19
 i =       1, E =      -77.8164734934
  C         6.9432456236        8.6690496476        7.4762555807
  C         8.1382551240        7.9572580107        7.3750641866
  C         8.1540128396        6.4425361977        7.2805587565
  C         6.8519678825        5.8221166873        7.8131724519
  C         5.6317593081        6.5128075696        7.1871767167
  C         5.5962826119        8.0052419661        7.5505714818
  H         9.0201381333        6.0446268504        7.8308511401
  H         6.8331742648        4.7443251231        7.6022330407
  H         4.6996358182        6.0308961773        7.5131547578
  H         4.8988176761        8.5723488115        6.9154130372
  O         6.9499697872        9.9928031710        7.5519984225
  C         9.3398422596        8.7124824235        7.3858875735
  O         9.3752764115        9.9859908053        7.4624865818
  H        10.3015372131        8.1736469350        7.3374629963
  H         8.0089112491       10.2498429892        7.5224701492
  H         5.2323523438        8.1458608744        8.5826731469
  H         5.6731370384        6.4000964341        6.0941406958
  H         6.8124155984        5.9301596253        8.9075122035
  H         8.2944362450        6.1310226358        6.2317096799
      19
 i =       2, E =      -77.8165035898
  C         6.9442264398        8.6714523869        7.4765314973
  C         8.1376545344        7.9560706961        7.3752010965
  C         8.1540150261        6.4425866126        7.2800819969
  C         6.8521364279        5.8225150645        7.8137468657
  C         5.6318740435        6.5126300932        7.1868126552
  C         5.5966540254        8.0063618813        7.5508253850
  H         9.0202060786        6.0446542774        7.8306094746
  H         6.8332735066        4.7439853299        7.6021493306
  H         4.6996108665        6.0308781695        7.5132565230
  H         4.8986879382        8.5721916822        6.9155958503
  O         6.9499980458        9.9909042167        7.5521741728
  C         9.3409657022        8.7134278292        7.3861365616
  O         9.3762320273        9.9853344243        7.4628104637
  H        10.3011181638        8.1738387491        7.3376937025
  H         8.0086965152       10.2488922082        7.5224068708
  H         5.2324516023        8.1457365351        8.5827689093
  H         5.6731289050        6.4001070776        6.0943933732
  H         6.8125134814        5.9300974744        8.9071333865
  H         8.2942320696        6.1314042434        6.2319508753
      19
 i =       3, E =      -77.8165167677
  C         6.9449910672        8.6705650576        7.4767550448
  C         8.1382966517        7.9565011332        7.3754427343
  C         8.1538770727        6.4425035554        7.2800437353
  C         6.8523230996        5.8223379892        7.8136002799
  C         5.6321171480        6.5130199966        7.1870097816
  C         5.5974338740        8.0075733344        7.5510225003
  H         9.0202539353        6.0447449362        7.8301684257
  H         6.8334458166        4.7439496261        7.6021696941
  H         4.6996626747        6.0309482598        7.5133739791
  H         4.8984162413        8.5721171666        6.9157989418
  O         6.9507271234        9.9914020634        7.5526211474
  C         9.3408324972        8.7123881840        7.3864429834
  O         9.3776093281        9.9858671828        7.4634380707
  H        10.3011219799        8.1739135926        7.3380283917
  H         8.0082034399       10.2475177598        7.5223581554
  H         5.2325912060        8.1456186863        8.5830071738
  H         5.6731699874        6.4000756970        6.0944161041
  H         6.8126602171        5.9301156355        8.9071201321
  H         8.2939414804        6.1318078618        6.2318838849
      19
 i =       4, E =      -77.8165250935
  C         6.9452105735        8.6711668929        7.4769613782
  C         8.1383450709        7.9560066871        7.3755559172
  C         8.1539134958        6.4425745000        7.2800155588
  C         6.8523617343        5.8224063897        7.8136442647
  C         5.6321799945        6.5132623085        7.1870736526
  C         5.5976973186        8.0077241955        7.5511405733
  H         9.0203088562        6.0447694004        7.8299304105
  H         6.8335385684        4.7438681652        7.6021522801
  H         4.6997836800        6.0310992892        7.5134355044
  H         4.8983550807        8.5721649874        6.9159213879
  O         6.9510356141        9.9909266463        7.5528680557
  C         9.3414076690        8.7133797228        7.3867222464
  O         9.3783115149        9.9849955986        7.4637808228
  H        10.3011760724        8.1738136742        7.3382176698
  H         8.0080036746       10.2469264445        7.5223745055
  H         5.2327357054        8.1456252841        8.5831248306
  H         5.6731942724        6.4001062050        6.0945077960
  H         6.8127583929        5.9301019321        8.9070581492
  H         8.2937817256        6.1320468952        6.2318044617
      19
 i =       5, E =      -77.8165338072
  C         6.9457807112        8.6705529954        7.4771859011
  C         8.1386149850        7.9563397698        7.3758024016
  C         8.1539492353        6.4425728877        7.2799510601
  C         6.8524330131        5.8224043039        7.8136082507
  C         5.6323568470        6.5135995446        7.1871865250
  C         5.5979810830        8.0081187787        7.5513064807
  H         9.0204400408        6.0447718489        7.8295839978
  H         6.8336718131        4.7438456570        7.6021364695
  H         4.6999650859        6.0313747019        7.5135453707
  H         4.8983316837        8.5722140842        6.9161664268
  O         6.9516543382        9.9911749289        7.5533198840
  C         9.3418378784        8.7124262070        7.3870434162
  O         9.3794619617        9.9854104612        7.4644616221
  H        10.3013505113        8.1736832331        7.3385211123
  H         8.0075025529       10.2460799182        7.5224484742
  H         5.2329714379        8.1456512393        8.5833003433
  H         5.6732392869        6.4001810200        6.0946471224
  H         6.8129116156        5.9300925118        8.9070336856
  H         8.2935413208        6.1323889765        6.2316639110
      19
 i =       6, E =      -77.8165401537
  C         6.9458301254        8.6708939625        7.4773732783
  C         8.1388616983        7.9560048101        7.3759114921
  C         8.1539626839        6.4426370067        7.2799226590
  C         6.8524908131        5.8224397181        7.8136060763
  C         5.6324244762        6.5137503985        7.1872552758
  C         5.5981785771        8.0082035477        7.5514054921
  H         9.0205351410        6.0447590898        7.8293901571
  H         6.8337369081        4.7438440807        7.6021180944
  H         4.7000802930        6.0315664467        7.5136158207
  H         4.8983634351        8.5722906603        6.9163045686
  O         6.9518607453        9.9908346690        7.5535699597
  C         9.3421804208        8.7132624407        7.3873308315
  O         9.3801139829        9.9845920507        7.4648535729
  H        10.3016116407        8.1734475184        7.3386926681
  H         8.0073153718       10.2457242462        7.5225306950
  H         5.2331292990        8.1456951595        8.5834159486
  H         5.6732698899        6.4002529787        6.0947279607
  H         6.8130054277        5.9300819916        8.9070183927
  H         8.2934094509        6.1325941679        6.2315619876
      19
 i =       7, E =      -77.8165457907
  C         6.9460226306        8.6707156512        7.4775168206
  C         8.1390079389        7.9560328095        7.3760482965
  C         8.1540293054        6.4426608056        7.2798838891
  C         6.8525606256        5.8224712342        7.8135958040
  C         5.6325229864        6.5138488742        7.1873220065
  C         5.5983030762        8.0082767481        7.5515069348
  H         9.0206456146        6.0447135256        7.8292111312
  H         6.8337836050        4.7438913326        7.6020923385
  H         4.7001682961        6.0317789106        7.5137045354
  H         4.8984625137        8.5723862979        6.9164582180
  O         6.9520154205        9.9907872788        7.5538422003
  C         9.3425478069        8.7131112629        7.3875819221
  O         9.3807178186        9.9844430527        7.4653509384
  H        10.3018898132        8.1731964893        7.3388657783
  H         8.0070739967       10.2455366879        7.5226797046
  H         5.2332969781        8.1457647524        8.5835302082
  H         5.6733058633        6.4003591367        6.0947972082
  H         6.8130999673        5.9300728311        8.9070236033
  H         8.2932971133        6.1327733367        6.2314511519
      19
 i =       8, E =      -77.8165501054
  C         6.9462467901        8.6705117644        7.4776194931
  C         8.1391059530        7.9561266466        7.3761561704
  C         8.1540764366        6.4426642270        7.2798479223
  C         6.8526065422        5.8224936913        7.8135994983
  C         5.6325974503        6.5139621427        7.1873658735
  C         5.5984072798        8.0083716831        7.5515877210
  H         9.0207186833        6.0446883859        7.8290672483
  H         6.8338273959        4.7439018996        7.6020740581
  H         4.7002320295        6.0319177909        7.5137685028
  H         4.8985114724        8.5724415451        6.9165704599
  O         6.9522059168        9.9908296186        7.5540581395
  C         9.3428141130        8.7127308518        7.3877509480
  O         9.3811820786        9.9845398908        7.4657201789
  H        10.3020236629        8.1730700222        7.3390011799
  H         8.0068488147       10.2453148963        7.5227762386
  H         5.2334165345        8.1458024642        8.5836123865
  H         5.6733305374        6.4004236730        6.0948547248
  H         6.8131723397        5.9300665943        8.9070148368
  H         8.2932078931        6.1329124297        6.2313808228
      19
 i =       9, E =      -77.8165945233
  C         6.9481599655        8.6699069738        7.4792334870
  C         8.1412236256        7.9556409145        7.3774813007
  C         8.1545488883        6.4428956574        7.2794388672
  C         6.8532976720        5.8227816295        7.8135682083
  C         5.6334668559        6.5153591706        7.1880448522
  C         5.6000648574        8.0093715637        7.5526683465
  H         9.0217963155        6.0442925015        7.8271422083
  H         6.8343832429        4.7441325185        7.6018125951
  H         4.7011269325        6.0338718983        7.5146539007
  H         4.8993500898        8.5733309885        6.9180845590
  O         6.9542811259        9.9899916669        7.5570711882
  C         9.3461998168        8.7129090621        7.3904674754
  O         9.3874218686        9.9817349134        7.4706799951
  H        10.3045674256        8.1707030542        7.3408266649
  H         8.0041267151       10.2427349360        7.5242771437
  H         5.2351008073        8.1463909922        8.5847947135
  H         5.6736856140        6.4013852593        6.0955965188
  H         6.8141803754        5.9299866320        8.9069692681
  H         8.2920437617        6.1348010724        6.2303370231
      19
 i =      10, E =      -77.8166022036
  C         6.9485405891        8.6693428459        7.4792884821
  C         8.1410496728        7.9559969205        7.3775905983
  C         8.1546832962        6.4428507966        7.2794014750
  C         6.8533372917        5.8228124892        7.8135683713
  C         5.6335391476        6.5153541922        7.1880785004
  C         5.6000761730        8.0094016914        7.5527442961
  H         9.0218691502        6.0442088272        7.8270428122
  H         6.8343875362        4.7441903399        7.6017794672
  H         4.7011301618        6.0339844647        7.5147309781
  H         4.8995195495        8.5734138889        6.9181865433
  O         6.9542346006        9.9902501292        7.5572893435
  C         9.3465745379        8.7116605865        7.3905922457
  O         9.3875469308        9.9823527695        7.4710028737
  H        10.3046675445        8.1705423643        7.3409436506
  H         8.0039353884       10.2428981962        7.5245221734
  H         5.2352131490        8.1464559499        8.5848610111
  H         5.6737110389        6.4014922488        6.0956277408
  H         6.8142492487        5.9299850056        8.9069874945
  H         8.2920223452        6.1348565704        6.2302720997
      19
 i =      11, E =      -77.8166179665
  C         6.9487375927        8.6694380494        7.4799073872
  C         8.1419120989        7.9555119521        7.3779751751
  C         8.1549643836        6.4428661072        7.2792480148
  C         6.8536563356        5.8229327525        7.8135806447
  C         5.6337300084        6.5154041922        7.1883036761
  C         5.6006132883        8.0092464072        7.5531540205
  H         9.0223413910        6.0437743737        7.8265533085
  H         6.8344011509        4.7444726499        7.6015996461
  H         4.7011927207        6.0345791217        7.5151347521
  H         4.9004690311        8.5739780375        6.9186568129
  O         6.9538135303        9.9898602394        7.5585053705
  C         9.3475977120        8.7118113664        7.3917131963
  O         9.3883819788        9.9805545069        7.4724908135
  H        10.3060380493        8.1690162820        7.3415517927
  H         8.0030649225       10.2438267476        7.5259109508
  H         5.2358491158        8.1468334694        8.5852774812
  H         5.6738517828        6.4020780710        6.0957872955
  H         6.8146379901        5.9299727551        8.9070631759
  H         8.2919381983        6.1352092562        6.2298994085
      19
 i =      12, E =      -77.8166245374
  C         6.9491836602        8.6689635558        7.4799754308
  C         8.1417346816        7.9558078438        7.3780961669
  C         8.1550680040        6.4427867661        7.2792149800
  C         6.8536900251        5.8229486179        7.8135927633
  C         5.6337933268        6.5154710067        7.1883445456
  C         5.6006526464        8.0093147961        7.5532364995
  H         9.0223932875        6.0436949623        7.8264410017
  H         6.8344130115        4.7444835865        7.6015670149
  H         4.7011952259        6.0346538742        7.5152055179
  H         4.9006297012        8.5740480272        6.9187492273
  O         6.9538835951        9.9901345259        7.5587955952
  C         9.3478999095        8.7106700904        7.3918137137
  O         9.3885074216        9.9811350394        7.4728532003
  H        10.3060517272        8.1689213285        7.3416923151
  H         8.0027683788       10.2438642866        7.5261706752
  H         5.2359557345        8.1468800691        8.5853442015
  H         5.6738702495        6.4021652234        6.0958233382
  H         6.8147145350        5.9299716662        8.9070597128
  H         8.2919247779        6.1352582332        6.2298523958
      19
 i =      13, E =      -77.8166371005
  C         6.9495395402        8.6692960830        7.4806286226
  C         8.1425058004        7.9551675050        7.3784887172
  C         8.1551847994        6.4426688966        7.2790969858
  C         6.8539246953        5.8229586907        7.8135932742
  C         5.6339256665        6.5157546653        7.1885881872
  C         5.6013115230        8.0094220278        7.5536457460
  H         9.0227421270        6.0433004219        7.8259351764
  H         6.8344511824        4.7445554847        7.6014144950
  H         4.7012908946        6.0350583217        7.5155357365
  H         4.9014628525        8.5745108124        6.9191443930
  O         6.9539028419        9.9898771574        7.5602605330
  C         9.3485463422        8.7112148222        7.3927602818
  O         9.3892707945        9.9793094542        7.4743782683
  H        10.3069071867        8.1678311495        7.3423628717
  H         8.0016215156       10.2441914154        7.5275335851
  H         5.2365197220        8.1471455026        8.5857361648
  H         5.6739656058        6.4026207433        6.0960131422
  H         6.8151113248        5.9299629508        8.9070697459
  H         8.2918763910        6.1355400436        6.2295726812
      19
 i =      14, E =      -77.8166443593
  C         6.9499110613        8.6688054458        7.4807025546
  C         8.1422994576        7.9554845487        7.3785884166
  C         8.1552769135        6.4426061803        7.2790671126
  C         6.8539317122        5.8229615724        7.8135897481
  C         5.6339894067        6.5157877973        7.1886226643
  C         5.6013369877        8.0095012412        7.5537191040
  H         9.0227801040        6.0432274038        7.8258465063
  H         6.8344549421        4.7445602509        7.6013909239
  H         4.7013079168        6.0351289635        7.5155882951
  H         4.9015987848        8.5745708081        6.9192194845
  O         6.9538994770        9.9901305227        7.5605357650
  C         9.3488169627        8.7100819989        7.3928422300
  O         9.3893631351        9.9799227611        7.4746907976
  H        10.3068863415        8.1677752134        7.3424850549
  H         8.0013904233       10.2442293181        7.5277743629
  H         5.2366072380        8.1471852300        8.5857923522
  H         5.6739760167        6.4026939487        6.0960542682
  H         6.8151768158        5.9299581389        8.9070703330
  H         8.2918670812        6.1355687385        6.2295323051
      19
 i =      15, E =      -77.8167216730
  C         6.9535728544        8.6682357706        7.4876878193
  C         8.1467358609        7.9523904971        7.3822200047
  C         8.1565916642        6.4415103589        7.2777612433
  C         6.8554371650        5.8227160436        7.8132975525
  C         5.6357833265        6.5178761800        7.1909553625
  C         5.6066336036        8.0107649984        7.5577658903
  H         9.0255862538        6.0392716064        7.8212702798
  H         6.8344819704        4.7448147139        7.6001179268
  H         4.7027312026        6.0391827222        7.5184345321
  H         4.9094740303        8.5790048044        6.9228391267
  O         6.9514084291        9.9888423606        7.5760039781
  C         9.3550879350        8.7077590444        7.4017153857
  O         9.3955411807        9.9693390678        7.4891504205
  H        10.3134359760        8.1586539360        7.3490602513
  H         7.9915017976       10.2473164176        7.5418243754
  H         5.2417743670        8.1497082951        8.5895433872
  H         5.6746008780        6.4069358001        6.0982708501
  H         6.8189552495        5.9296121719        8.9070685424
  H         8.2914649824        6.1376479156        6.2269640640
      19
 i =      16, E =      -77.8167762133
  C         6.9547256774        8.6666729965        7.4877016461
  C         8.1456816253        7.9536756519        7.3824490101
  C         8.1568018625        6.4412518220        7.2777249166
  C         6.8555021675        5.8227226748        7.8133651153
  C         5.6358793512        6.5180173874        7.1909826096
  C         5.6062507342        8.0107363381        7.5578512265
  H         9.0254731640        6.0392472763        7.8212107562
  H         6.8344545259        4.7447442938        7.6000955574
  H         4.7026676875        6.0391793152        7.5184895297
  H         4.9095903881        8.5789951846        6.9229137541
  O         6.9514933602        9.9898053543        7.5763705989
  C         9.3555277588        8.7040277015        7.4015278145
  O         9.3950025349        9.9721341111        7.4893668334
  H        10.3129018202        8.1589158611        7.3492033525
  H         7.9908998542       10.2472278664        7.5422152366
  H         5.2417297740        8.1497101764        8.5895987010
  H         5.6745923502        6.4069702466        6.0982638416
  H         6.8189859500        5.9295587767        8.9070088970
  H         8.2914691320        6.1376162588        6.2269705300
      19
 i =      17, E =      -77.8167765677
  C         6.9542083691        8.6674804507        7.4883193190
  C         8.1460209739        7.9530470193        7.3826733189
  C         8.1566101327        6.4411485007        7.2776773159
  C         6.8557483338        5.8225943804        7.8133874166
  C         5.6357860843        6.5181846307        7.1911126014
  C         5.6061637106        8.0103684060        7.5581353107
  H         9.0253491857        6.0391585097        7.8210972593
  H         6.8343337391        4.7445950115        7.6000649261
  H         4.7026464242        6.0391930364        7.5186154506
  H         4.9099020369        8.5791576276        6.9230456154
  O         6.9510630914        9.9895918968        7.5772417986
  C         9.3549282997        8.7059618562        7.4019326119
  O         9.3938825726        9.9706093171        7.4892045209
  H        10.3128228245        8.1586845453        7.3496129237
  H         7.9903063635       10.2471551895        7.5433959479
  H         5.2416571889        8.1497349464        8.5899014812
  H         5.6745695178        6.4071025300        6.0982949784
  H         6.8191275092        5.9293967479        8.9069354231
  H         8.2914536867        6.1376135596        6.2268753803
      19
 i =      18, E =      -77.8167869034
  C         6.9546233252        8.6666754381        7.4884348955
  C         8.1454369942        7.9536229339        7.3828424605
  C         8.1567106584        6.4410924253        7.2776393020
  C         6.8556774052        5.8225563643        7.8133502939
  C         5.6358445444        6.5181153253        7.1911360353
  C         5.6060851059        8.0105138056        7.5582706085
  H         9.0253150009        6.0391039580        7.8210528038
  H         6.8342998934        4.7445584956        7.6000497873
  H         4.7026411476        6.0391998992        7.5186608362
  H         4.9099915660        8.5791716285        6.9231224230
  O         6.9508861182        9.9900070140        7.5776110343
  C         9.3550961860        8.7038870259        7.4018702231
  O         9.3935391334        9.9721135643        7.4894058450
  H        10.3124705011        8.1588828220        7.3497867057
  H         7.9899723796       10.2471351801        7.5438049017
  H         5.2416049416        8.1497204328        8.5899913719
  H         5.6745562686        6.4071601269        6.0983444013
  H         6.8191868210        5.9293405135        8.9069440155
  H         8.2914402879        6.1376021167        6.2268495376
      19
 i =      19, E =      -77.8167914869
  C         6.9544149804        8.6668429124        7.4886649897
  C         8.1454445001        7.9534467428        7.3829381213
  C         8.1566555294        6.4410983580        7.2776148818
  C         6.8556569429        5.8225019447        7.8133248356
  C         5.6358369910        6.5180842803        7.1911850755
  C         5.6061192306        8.0105094223        7.5584035972
  H         9.0253005803        6.0390539274        7.8210140471
  H         6.8342584772        4.7445141301        7.6000342279
  H         4.7026466631        6.0392032774        7.5187073330
  H         4.9100856054        8.5792239977        6.9231892541
  O         6.9506014520        9.9898963552        7.5779734684
  C         9.3548761127        8.7042772895        7.4019976420
  O         9.3932600576        9.9717625958        7.4894601807
  H        10.3124124246        8.1588734630        7.3499608916
  H         7.9898103512       10.2471422542        7.5442422921
  H         5.2415582410        8.1497131229        8.5901118045
  H         5.6745415217        6.4072226374        6.0983881890
  H         6.8192527083        5.9292758096        8.9069404187
  H         8.2914243146        6.1376140566        6.2268091018
      19
 i =      20, E =      -77.8167749842
  C         6.9528478143        8.6680064241        7.4908606725
  C         8.1451737641        7.9522422688        7.3839044400
  C         8.1561156025        6.4409068013        7.2774114335
  C         6.8556398488        5.8219946072        7.8132426351
  C         5.6357165996        6.5181521039        7.1917548047
  C         5.6060583112        8.0100673583        7.5596857421
  H         9.0250942342        6.0385842374        7.8205384221
  H         6.8338611115        4.7440285668        7.5998466192
  H         4.7026373279        6.0391998681        7.5191995407
  H         4.9109611174        8.5797230144        6.9239428754
  O         6.9482372999        9.9891443574        7.5815551859
  C         9.3528813068        8.7072887432        7.4032610893
  O         9.3905486581        9.9689119995        7.4902784130
  H        10.3116972425        8.1589993385        7.3517272658
  H         7.9882401530       10.2471239170        7.5484765545
  H         5.2410936423        8.1496258127        8.5913153466
  H         5.6743805675        6.4078355237        6.0987950287
  H         6.8198943212        5.9286141944        8.9068065715
  H         8.2912157865        6.1378068465        6.2264155738
